/*--------------------------------*- C++ -*----------------------------------*\
  =========                 |
  \\      /  F ield         | OpenFOAM: The Open Source CFD Toolbox
   \\    /   O peration     | Website:  https://openfoam.org
    \\  /    A nd           | Version:  7
     \\/     M anipulation  |
\*---------------------------------------------------------------------------*/
FoamFile
{
    version     2.0;
    format      ascii;
    class       volScalarField;
    location    "20000";
    object      epsilon;
}
// * * * * * * * * * * * * * * * * * * * * * * * * * * * * * * * * * * * * * //

dimensions      [0 2 -3 0 0 0 0];

internalField   nonuniform List<scalar> 
10981
(
4.28614e-06
4.084e-06
3.22838e-06
2.50835e-06
1.91969e-06
1.46398e-06
1.13001e-06
8.92636e-07
7.24724e-07
6.04396e-07
5.1621e-07
4.49882e-07
3.98666e-07
3.58117e-07
3.25255e-07
2.9804e-07
2.75047e-07
2.55255e-07
2.37922e-07
2.22497e-07
2.08566e-07
1.95818e-07
1.84011e-07
1.72964e-07
1.62537e-07
1.52626e-07
1.43151e-07
1.34058e-07
1.25305e-07
1.16866e-07
1.08729e-07
1.00887e-07
9.33433e-08
8.61082e-08
7.91968e-08
7.26297e-08
6.64307e-08
6.0626e-08
5.52422e-08
5.03047e-08
4.58352e-08
4.18505e-08
3.83614e-08
3.53726e-08
3.28833e-08
3.08897e-08
2.93865e-08
2.83702e-08
2.78413e-08
2.78063e-08
2.82794e-08
2.92819e-08
3.08418e-08
3.29909e-08
3.57636e-08
3.91945e-08
4.33212e-08
4.81897e-08
5.38658e-08
6.04504e-08
6.80996e-08
7.70479e-08
8.7635e-08
1.00339e-07
1.15819e-07
1.34962e-07
1.58954e-07
1.8935e-07
2.28157e-07
2.77928e-07
3.41867e-07
4.23986e-07
5.29301e-07
6.64451e-07
8.38678e-07
1.06529e-06
1.36141e-06
1.71602e-06
1.7131e-06
4.25406e-06
3.90715e-06
3.05899e-06
2.39614e-06
1.86349e-06
1.44326e-06
1.12686e-06
8.95903e-07
7.29187e-07
6.08149e-07
5.1881e-07
4.51412e-07
3.99354e-07
3.58188e-07
3.24894e-07
2.9739e-07
2.74212e-07
2.54313e-07
2.36928e-07
2.21492e-07
2.07579e-07
1.94869e-07
1.83116e-07
1.72132e-07
1.61776e-07
1.51938e-07
1.4254e-07
1.33521e-07
1.24842e-07
1.16476e-07
1.08406e-07
1.00627e-07
9.31429e-08
8.59614e-08
7.90983e-08
7.25737e-08
6.64114e-08
6.06374e-08
5.52787e-08
5.03604e-08
4.59049e-08
4.19294e-08
3.84453e-08
3.54579e-08
3.29674e-08
3.09703e-08
2.94621e-08
2.84395e-08
2.79032e-08
2.78599e-08
2.83235e-08
2.93154e-08
3.08632e-08
3.29989e-08
3.57571e-08
3.91731e-08
4.32859e-08
4.81436e-08
5.38149e-08
6.04047e-08
6.80743e-08
7.70646e-08
8.77236e-08
1.0054e-07
1.16186e-07
1.35565e-07
1.5988e-07
1.90703e-07
2.30054e-07
2.8049e-07
3.45205e-07
4.28095e-07
5.34118e-07
6.698e-07
8.44249e-07
1.07064e-06
1.36601e-06
1.71947e-06
1.71777e-06
4.25729e-06
3.77373e-06
2.89914e-06
2.26724e-06
1.7798e-06
1.3975e-06
1.10445e-06
8.856e-07
7.24415e-07
6.05629e-07
5.17064e-07
4.49877e-07
3.97873e-07
3.56707e-07
3.23407e-07
2.95909e-07
2.72754e-07
2.52894e-07
2.35562e-07
2.20191e-07
2.06351e-07
1.93721e-07
1.82052e-07
1.71156e-07
1.60889e-07
1.51141e-07
1.41831e-07
1.32899e-07
1.24304e-07
1.16018e-07
1.08024e-07
1.00316e-07
9.2897e-08
8.57752e-08
7.89658e-08
7.24885e-08
6.63672e-08
6.06279e-08
5.52975e-08
5.04016e-08
4.59627e-08
4.19987e-08
3.85216e-08
3.55373e-08
3.30469e-08
3.10476e-08
2.95353e-08
2.85072e-08
2.79642e-08
2.79131e-08
2.83677e-08
2.93494e-08
3.08856e-08
3.30084e-08
3.57525e-08
3.91544e-08
4.32542e-08
4.81023e-08
5.37704e-08
6.03679e-08
6.80611e-08
7.70977e-08
8.78347e-08
1.00772e-07
1.16594e-07
1.36221e-07
1.60874e-07
1.92142e-07
2.3206e-07
2.83189e-07
3.4864e-07
4.32277e-07
5.38958e-07
6.75091e-07
8.49643e-07
1.07566e-06
1.37006e-06
1.72216e-06
1.72205e-06
4.10589e-06
3.65149e-06
2.75454e-06
2.14075e-06
1.68816e-06
1.33963e-06
1.07114e-06
8.67368e-07
7.14463e-07
5.9988e-07
5.1347e-07
4.4738e-07
3.95898e-07
3.54993e-07
3.21834e-07
2.94424e-07
2.71336e-07
2.51537e-07
2.34268e-07
2.18962e-07
2.05193e-07
1.92638e-07
1.81048e-07
1.70233e-07
1.6005e-07
1.50387e-07
1.41161e-07
1.32313e-07
1.23799e-07
1.15591e-07
1.07671e-07
1.00033e-07
9.26786e-08
8.56155e-08
7.88587e-08
7.24278e-08
6.63465e-08
6.06406e-08
5.53372e-08
5.04621e-08
4.60381e-08
4.20838e-08
3.86117e-08
3.56287e-08
3.31364e-08
3.11328e-08
2.96144e-08
2.85788e-08
2.80271e-08
2.79663e-08
2.841e-08
2.93794e-08
3.09019e-08
3.30097e-08
3.57378e-08
3.91235e-08
4.32085e-08
4.80455e-08
5.37095e-08
6.03138e-08
6.80303e-08
7.71138e-08
8.79296e-08
1.00989e-07
1.16989e-07
1.36867e-07
1.6186e-07
1.93571e-07
2.34041e-07
2.85811e-07
3.51995e-07
4.36339e-07
5.43614e-07
6.80103e-07
8.54636e-07
1.08012e-06
1.37341e-06
1.72407e-06
1.72591e-06
3.90411e-06
3.55334e-06
2.65032e-06
2.04308e-06
1.61172e-06
1.28782e-06
1.03975e-06
8.49935e-07
7.05427e-07
5.9549e-07
5.11402e-07
4.46362e-07
3.95293e-07
3.54501e-07
3.21328e-07
2.93858e-07
2.70706e-07
2.50854e-07
2.33549e-07
2.18227e-07
2.0446e-07
1.91922e-07
1.80363e-07
1.69591e-07
1.59458e-07
1.49852e-07
1.40688e-07
1.31904e-07
1.23454e-07
1.15309e-07
1.07451e-07
9.98719e-08
9.25716e-08
8.55582e-08
7.88458e-08
7.24535e-08
6.64046e-08
6.07249e-08
5.54414e-08
5.05802e-08
4.61645e-08
4.22132e-08
3.87398e-08
3.57519e-08
3.32519e-08
3.12384e-08
2.97087e-08
2.86605e-08
2.80953e-08
2.80199e-08
2.8448e-08
2.94005e-08
3.09047e-08
3.29928e-08
3.57002e-08
3.90651e-08
4.31308e-08
4.79524e-08
5.3608e-08
6.02152e-08
6.79512e-08
7.70772e-08
8.79673e-08
1.01143e-07
1.17315e-07
1.37435e-07
1.62756e-07
1.94892e-07
2.35884e-07
2.88257e-07
3.55071e-07
4.40036e-07
5.47812e-07
6.8456e-07
8.58964e-07
1.08377e-06
1.37578e-06
1.72497e-06
1.72872e-06
3.70627e-06
3.44788e-06
2.57542e-06
1.97724e-06
1.55881e-06
1.25086e-06
1.01736e-06
8.38319e-07
7.00654e-07
5.94546e-07
5.12306e-07
4.47962e-07
3.96986e-07
3.56006e-07
3.22538e-07
2.94759e-07
2.71323e-07
2.5123e-07
2.33731e-07
2.1826e-07
2.04384e-07
1.91773e-07
1.8017e-07
1.69377e-07
1.59243e-07
1.4965e-07
1.40511e-07
1.31759e-07
1.23348e-07
1.15244e-07
1.07427e-07
9.98888e-08
9.26273e-08
8.56495e-08
7.89684e-08
7.26026e-08
6.65747e-08
6.09104e-08
5.56364e-08
5.0779e-08
4.63617e-08
4.24042e-08
3.89205e-08
3.59191e-08
3.34033e-08
3.13723e-08
2.98238e-08
2.87562e-08
2.81709e-08
2.80747e-08
2.84811e-08
2.94105e-08
3.08903e-08
3.29526e-08
3.56332e-08
3.89714e-08
4.3012e-08
4.78124e-08
5.34541e-08
6.00584e-08
6.78078e-08
7.69697e-08
8.79262e-08
1.01209e-07
1.17541e-07
1.37888e-07
1.63516e-07
1.9605e-07
2.3753e-07
2.90456e-07
3.57846e-07
4.43345e-07
5.51503e-07
6.88344e-07
8.62407e-07
1.08633e-06
1.37687e-06
1.72459e-06
1.73056e-06
3.44772e-06
3.27963e-06
2.50732e-06
1.94059e-06
1.53581e-06
1.23775e-06
1.01243e-06
8.39409e-07
7.05419e-07
6.01047e-07
5.19214e-07
4.54502e-07
4.0278e-07
3.60927e-07
3.26598e-07
2.98036e-07
2.73923e-07
2.53264e-07
2.35304e-07
2.19465e-07
2.05301e-07
1.92469e-07
1.80702e-07
1.6979e-07
1.59574e-07
1.49928e-07
1.40758e-07
1.31992e-07
1.23579e-07
1.15482e-07
1.07679e-07
1.00155e-07
9.291e-08
8.59473e-08
7.92789e-08
7.29223e-08
6.68993e-08
6.1235e-08
5.5956e-08
5.10885e-08
4.66564e-08
4.26797e-08
3.91735e-08
3.6147e-08
3.36042e-08
3.15452e-08
2.99683e-08
2.88719e-08
2.82577e-08
2.81322e-08
2.85085e-08
2.94068e-08
3.0854e-08
3.28824e-08
3.55281e-08
3.88314e-08
4.28388e-08
4.761e-08
5.32294e-08
5.98222e-08
6.75754e-08
7.67624e-08
8.77725e-08
1.01147e-07
1.17619e-07
1.38168e-07
1.64072e-07
1.96962e-07
2.38874e-07
2.92287e-07
3.60169e-07
4.46089e-07
5.54487e-07
6.91247e-07
8.64767e-07
1.08757e-06
1.37647e-06
1.72281e-06
1.73095e-06
3.12922e-06
3.01003e-06
2.41987e-06
1.92522e-06
1.5462e-06
1.25685e-06
1.03425e-06
8.61528e-07
7.26529e-07
6.20346e-07
5.36271e-07
4.69186e-07
4.15167e-07
3.71215e-07
3.35044e-07
3.04909e-07
2.7948e-07
2.57739e-07
2.38898e-07
2.22352e-07
2.07628e-07
1.94354e-07
1.82243e-07
1.71068e-07
1.60652e-07
1.50856e-07
1.41576e-07
1.3273e-07
1.2426e-07
1.16123e-07
1.08291e-07
1.00748e-07
9.34883e-08
8.65131e-08
7.98325e-08
7.34623e-08
6.7423e-08
6.17389e-08
5.6436e-08
5.15404e-08
4.70763e-08
4.30642e-08
3.95197e-08
3.64532e-08
3.38694e-08
3.17692e-08
3.01513e-08
2.90145e-08
2.83602e-08
2.81946e-08
2.85305e-08
2.93874e-08
3.0792e-08
3.27763e-08
3.53769e-08
3.8635e-08
4.25988e-08
4.73303e-08
5.29165e-08
5.94861e-08
6.72301e-08
7.6427e-08
8.74724e-08
1.00915e-07
1.175e-07
1.38216e-07
1.6435e-07
1.9754e-07
2.39814e-07
2.93626e-07
3.61891e-07
4.48097e-07
5.56568e-07
6.93052e-07
8.65811e-07
1.08728e-06
1.37436e-06
1.71942e-06
1.72926e-06
2.76289e-06
2.60405e-06
2.26729e-06
1.90489e-06
1.58256e-06
1.31208e-06
1.09156e-06
9.14317e-07
7.72716e-07
6.59684e-07
5.69232e-07
4.96496e-07
4.37611e-07
3.89549e-07
3.49951e-07
3.16992e-07
2.89256e-07
2.65642e-07
2.45294e-07
2.2754e-07
2.11854e-07
1.9782e-07
1.8511e-07
1.73467e-07
1.62685e-07
1.52606e-07
1.43107e-07
1.34092e-07
1.25492e-07
1.17253e-07
1.09342e-07
1.01735e-07
9.4421e-08
8.73992e-08
8.06759e-08
7.42643e-08
6.81832e-08
6.24555e-08
5.71064e-08
5.21615e-08
4.76451e-08
4.35783e-08
3.99774e-08
3.68534e-08
3.42122e-08
3.20553e-08
3.03818e-08
2.91908e-08
2.84834e-08
2.82653e-08
2.85487e-08
2.93526e-08
3.07027e-08
3.26312e-08
3.51749e-08
3.83759e-08
4.2284e-08
4.69632e-08
5.25031e-08
5.90352e-08
6.67539e-08
7.59417e-08
8.69996e-08
1.00483e-07
1.17145e-07
1.37982e-07
1.64291e-07
1.97712e-07
2.40262e-07
2.94367e-07
3.62889e-07
4.49226e-07
5.57587e-07
6.93586e-07
8.65354e-07
1.08525e-06
1.37034e-06
1.71423e-06
1.72494e-06
2.36921e-06
2.07768e-06
1.99569e-06
1.82188e-06
1.60769e-06
1.38759e-06
1.18285e-06
1.00359e-06
8.52319e-07
7.27377e-07
6.25322e-07
5.42299e-07
4.74709e-07
4.19459e-07
3.74012e-07
3.36331e-07
3.04803e-07
2.78157e-07
2.55391e-07
2.35716e-07
2.18507e-07
2.0327e-07
1.89612e-07
1.77223e-07
1.65858e-07
1.55321e-07
1.45464e-07
1.36168e-07
1.27345e-07
1.1893e-07
1.10876e-07
1.03152e-07
9.57393e-08
8.86318e-08
8.18313e-08
7.53475e-08
6.91967e-08
6.33998e-08
5.79805e-08
5.29638e-08
4.8374e-08
4.42322e-08
4.05555e-08
3.73559e-08
3.46399e-08
3.241e-08
3.06656e-08
2.94059e-08
2.86317e-08
2.83483e-08
2.85667e-08
2.93051e-08
3.05888e-08
3.24493e-08
3.49239e-08
3.80554e-08
4.1895e-08
4.65087e-08
5.19882e-08
5.84674e-08
6.61432e-08
7.53012e-08
8.63464e-08
9.98394e-08
1.16539e-07
1.3745e-07
1.63874e-07
1.97449e-07
2.40184e-07
2.9447e-07
3.63112e-07
4.49419e-07
5.57481e-07
6.92778e-07
8.63318e-07
1.0814e-06
1.36429e-06
1.70707e-06
1.71756e-06
1.99988e-06
1.54547e-06
1.60802e-06
1.61509e-06
1.5487e-06
1.42642e-06
1.27385e-06
1.1137e-06
9.61517e-07
8.25681e-07
7.09141e-07
6.11534e-07
5.3085e-07
4.64519e-07
4.09993e-07
3.65008e-07
3.27665e-07
2.96414e-07
2.70013e-07
2.47474e-07
2.28011e-07
2.11003e-07
1.95956e-07
1.82478e-07
1.70259e-07
1.59054e-07
1.48672e-07
1.38963e-07
1.29814e-07
1.21138e-07
1.12873e-07
1.04976e-07
9.74184e-08
9.01857e-08
8.32741e-08
7.66885e-08
7.04417e-08
6.45516e-08
5.90404e-08
5.39317e-08
4.92494e-08
4.50146e-08
4.12452e-08
3.79537e-08
3.51477e-08
3.28303e-08
3.10014e-08
2.96601e-08
2.88071e-08
2.84468e-08
2.85892e-08
2.92517e-08
3.04584e-08
3.22407e-08
3.46356e-08
3.76869e-08
4.1447e-08
4.59836e-08
5.13904e-08
5.7803e-08
6.54204e-08
7.45305e-08
8.5541e-08
9.90162e-08
1.1572e-07
1.36662e-07
1.63147e-07
1.9681e-07
2.39647e-07
2.94014e-07
3.62652e-07
4.4878e-07
5.56366e-07
6.90756e-07
8.59835e-07
1.07586e-06
1.35631e-06
1.69789e-06
1.70669e-06
1.68601e-06
1.12464e-06
1.19719e-06
1.29894e-06
1.35848e-06
1.35719e-06
1.29842e-06
1.19738e-06
1.07311e-06
9.42645e-07
8.18106e-07
7.06318e-07
6.09897e-07
5.28759e-07
4.6141e-07
4.05831e-07
3.59969e-07
3.21974e-07
2.9028e-07
2.63606e-07
2.40919e-07
2.21399e-07
2.04395e-07
1.89394e-07
1.75988e-07
1.63858e-07
1.52753e-07
1.42477e-07
1.32881e-07
1.23851e-07
1.15301e-07
1.07172e-07
9.9421e-08
9.20239e-08
8.49684e-08
7.82533e-08
7.18865e-08
6.58824e-08
6.02604e-08
5.50426e-08
5.02519e-08
4.59094e-08
4.20331e-08
3.86364e-08
3.57277e-08
3.33107e-08
3.13859e-08
2.99524e-08
2.90105e-08
2.85637e-08
2.86212e-08
2.9199e-08
3.03203e-08
3.20158e-08
3.43226e-08
3.7285e-08
4.09566e-08
4.54066e-08
5.07303e-08
5.70651e-08
6.46112e-08
7.36581e-08
8.46154e-08
9.80503e-08
1.1473e-07
1.35667e-07
1.62168e-07
1.95865e-07
2.38733e-07
2.93093e-07
3.61621e-07
4.47436e-07
5.54385e-07
6.8768e-07
8.55082e-07
1.0688e-06
1.34658e-06
1.6868e-06
1.69288e-06
1.43895e-06
8.43406e-07
8.63868e-07
9.68939e-07
1.08026e-06
1.16481e-06
1.20389e-06
1.19146e-06
1.13281e-06
1.04089e-06
9.31231e-07
8.17691e-07
7.10115e-07
6.13992e-07
5.31338e-07
4.61934e-07
4.04403e-07
3.56948e-07
3.17765e-07
2.85242e-07
2.58023e-07
2.35003e-07
2.15299e-07
1.98213e-07
1.83199e-07
1.69824e-07
1.57754e-07
1.46728e-07
1.36546e-07
1.27053e-07
1.18136e-07
1.09709e-07
1.01715e-07
9.41127e-08
8.68811e-08
8.00102e-08
7.35014e-08
6.73646e-08
6.16157e-08
5.62745e-08
5.13624e-08
4.69002e-08
4.29058e-08
3.93932e-08
3.63716e-08
3.38454e-08
3.18155e-08
3.02811e-08
2.92421e-08
2.87012e-08
2.86665e-08
2.91527e-08
3.0182e-08
3.17842e-08
3.39962e-08
3.68629e-08
4.04389e-08
4.47947e-08
5.00272e-08
5.62749e-08
6.37393e-08
7.27107e-08
8.36003e-08
9.69767e-08
1.1361e-07
1.34514e-07
1.60996e-07
1.9468e-07
2.37522e-07
2.91801e-07
3.60124e-07
4.4551e-07
5.51682e-07
6.83713e-07
8.49247e-07
1.06044e-06
1.33529e-06
1.67394e-06
1.67664e-06
1.24595e-06
6.63599e-07
6.33442e-07
7.02702e-07
8.04477e-07
9.12995e-07
1.00769e-06
1.07115e-06
1.09218e-06
1.06843e-06
1.00622e-06
9.17631e-07
8.16348e-07
7.14103e-07
6.18893e-07
5.34891e-07
4.63335e-07
4.03657e-07
3.54408e-07
3.13877e-07
2.80415e-07
2.52583e-07
2.29194e-07
2.09291e-07
1.92122e-07
1.77099e-07
1.63763e-07
1.51763e-07
1.40825e-07
1.30744e-07
1.21364e-07
1.12568e-07
1.04275e-07
9.64259e-08
8.89851e-08
8.19323e-08
7.52608e-08
6.89744e-08
6.30845e-08
5.76078e-08
5.25638e-08
4.79722e-08
4.38509e-08
4.02141e-08
3.70717e-08
3.44286e-08
3.22864e-08
3.06443e-08
2.95017e-08
2.88607e-08
2.87282e-08
2.91175e-08
3.00496e-08
3.15535e-08
3.36658e-08
3.64316e-08
3.99065e-08
4.41622e-08
4.9297e-08
5.54505e-08
6.2825e-08
7.17115e-08
8.25218e-08
9.58259e-08
1.12394e-07
1.33244e-07
1.59678e-07
1.93313e-07
2.36082e-07
2.9022e-07
3.58259e-07
4.43116e-07
5.48386e-07
6.79006e-07
8.42498e-07
1.05097e-06
1.32264e-06
1.65946e-06
1.6584e-06
1.08863e-06
5.44411e-07
4.81811e-07
5.1526e-07
5.86199e-07
6.78415e-07
7.79828e-07
8.76569e-07
9.53525e-07
9.9758e-07
1.00135e-06
9.65372e-07
8.97432e-07
8.09569e-07
7.1419e-07
6.21175e-07
5.36696e-07
4.63523e-07
4.02014e-07
3.51172e-07
3.09434e-07
2.75143e-07
2.46795e-07
2.23119e-07
2.03089e-07
1.85898e-07
1.70916e-07
1.57662e-07
1.45765e-07
1.34944e-07
1.24989e-07
1.15742e-07
1.07088e-07
9.89454e-08
9.12605e-08
8.39992e-08
7.71445e-08
7.06924e-08
6.46487e-08
5.90261e-08
5.38415e-08
4.91129e-08
4.48578e-08
4.10904e-08
3.7821e-08
3.50552e-08
3.2795e-08
3.10398e-08
2.97887e-08
2.90429e-08
2.88081e-08
2.90965e-08
2.99277e-08
3.13297e-08
3.33386e-08
3.59997e-08
3.93693e-08
4.35205e-08
4.85526e-08
5.46064e-08
6.18846e-08
7.06788e-08
8.14012e-08
9.46222e-08
1.11113e-07
1.31891e-07
1.58256e-07
1.91813e-07
2.34471e-07
2.88416e-07
3.56105e-07
4.40346e-07
5.44608e-07
6.73688e-07
8.34981e-07
1.04053e-06
1.30879e-06
1.64349e-06
1.63858e-06
9.56285e-07
4.60182e-07
3.81363e-07
3.88722e-07
4.31328e-07
4.96676e-07
5.79181e-07
6.72469e-07
7.66985e-07
8.50216e-07
9.09019e-07
9.33249e-07
9.19038e-07
8.70017e-07
7.95766e-07
7.08356e-07
6.18813e-07
5.34968e-07
4.61036e-07
3.9834e-07
3.46386e-07
3.03805e-07
2.68969e-07
2.40323e-07
2.16533e-07
1.96511e-07
1.79401e-07
1.64544e-07
1.51435e-07
1.39692e-07
1.29029e-07
1.19233e-07
1.10148e-07
1.0166e-07
9.36931e-08
8.6195e-08
7.91361e-08
7.25026e-08
6.62931e-08
6.05154e-08
5.51827e-08
5.03111e-08
4.59168e-08
4.20139e-08
3.8613e-08
3.57202e-08
3.33378e-08
3.14655e-08
3.0102e-08
2.92478e-08
2.89076e-08
2.90921e-08
2.98197e-08
3.11171e-08
3.302e-08
3.55737e-08
3.88352e-08
4.28786e-08
4.78043e-08
5.3754e-08
6.09312e-08
6.96277e-08
8.02556e-08
9.33858e-08
1.0979e-07
1.30484e-07
1.56763e-07
1.90221e-07
2.32737e-07
2.86447e-07
3.53728e-07
4.37281e-07
5.4044e-07
6.67864e-07
8.26817e-07
1.02927e-06
1.29388e-06
1.62619e-06
1.61748e-06
8.43934e-07
3.97001e-07
3.12833e-07
3.04657e-07
3.26084e-07
3.67838e-07
4.26857e-07
5.00831e-07
5.86293e-07
6.76586e-07
7.61546e-07
8.28902e-07
8.67308e-07
8.69946e-07
8.36963e-07
7.75322e-07
6.96125e-07
6.10894e-07
5.28682e-07
4.54935e-07
3.91858e-07
3.3945e-07
2.9655e-07
2.61574e-07
2.32943e-07
2.09276e-07
1.89442e-07
1.7255e-07
1.5792e-07
1.45034e-07
1.33506e-07
1.23048e-07
1.13451e-07
1.0456e-07
9.62687e-08
8.85039e-08
8.12191e-08
7.43886e-08
6.80021e-08
6.2061e-08
5.65741e-08
5.15547e-08
4.70175e-08
4.29759e-08
3.94404e-08
3.64177e-08
3.39103e-08
3.19181e-08
3.04396e-08
2.94747e-08
2.90269e-08
2.91056e-08
2.97278e-08
3.09192e-08
3.27146e-08
3.51593e-08
3.83109e-08
4.22443e-08
4.70612e-08
5.2904e-08
5.9977e-08
6.85719e-08
7.91012e-08
9.21355e-08
1.08446e-07
1.29048e-07
1.55231e-07
1.88573e-07
2.30925e-07
2.84368e-07
3.51195e-07
4.33996e-07
5.3597e-07
6.61634e-07
8.18117e-07
1.01731e-06
1.27806e-06
1.60766e-06
1.59534e-06
7.49468e-07
3.48055e-07
2.64164e-07
2.47718e-07
2.56282e-07
2.808e-07
3.19685e-07
3.72997e-07
4.398e-07
5.18242e-07
6.03598e-07
6.87594e-07
7.59096e-07
8.06483e-07
8.21163e-07
8.00679e-07
7.49674e-07
6.78055e-07
5.97385e-07
5.17507e-07
4.448e-07
3.82178e-07
3.30052e-07
2.87437e-07
2.528e-07
2.2455e-07
2.01281e-07
1.81838e-07
1.65315e-07
1.51023e-07
1.38444e-07
1.27194e-07
1.16992e-07
1.07633e-07
9.89727e-08
9.09092e-08
8.33763e-08
7.63333e-08
6.97592e-08
6.36475e-08
5.80016e-08
5.28311e-08
4.81486e-08
4.39665e-08
4.02951e-08
3.7141e-08
3.45072e-08
3.23937e-08
3.07988e-08
2.9722e-08
2.91655e-08
2.91376e-08
2.96538e-08
3.07386e-08
3.24261e-08
3.47612e-08
3.78021e-08
4.16246e-08
4.63313e-08
5.20658e-08
5.90327e-08
6.75242e-08
7.79527e-08
9.08888e-08
1.07103e-07
1.27609e-07
1.53689e-07
1.86907e-07
2.29079e-07
2.8223e-07
3.48566e-07
4.3056e-07
5.31277e-07
6.55088e-07
8.08987e-07
1.00478e-06
1.26145e-06
1.58805e-06
1.5724e-06
6.71239e-07
3.09529e-07
2.28509e-07
2.07853e-07
2.08846e-07
2.22675e-07
2.47412e-07
2.835e-07
3.32189e-07
3.93268e-07
4.65786e-07
5.46281e-07
6.27889e-07
7.00546e-07
7.52827e-07
7.75205e-07
7.63485e-07
7.20536e-07
6.55168e-07
5.78759e-07
5.0158e-07
4.30611e-07
3.69236e-07
3.18133e-07
2.76433e-07
2.42634e-07
2.15147e-07
1.92559e-07
1.73713e-07
1.57709e-07
1.43865e-07
1.31674e-07
1.20765e-07
1.10867e-07
1.01788e-07
9.33921e-08
8.55884e-08
7.83179e-08
7.15466e-08
6.52583e-08
5.94499e-08
5.41266e-08
4.9298e-08
4.49752e-08
4.11677e-08
3.78823e-08
3.51222e-08
3.28873e-08
3.11761e-08
2.99871e-08
2.93221e-08
2.91877e-08
2.95982e-08
3.05769e-08
3.2157e-08
3.43832e-08
3.73138e-08
4.10254e-08
4.56219e-08
5.12478e-08
5.81084e-08
6.64964e-08
7.68241e-08
8.96623e-08
1.05781e-07
1.26191e-07
1.52168e-07
1.85257e-07
2.27241e-07
2.80083e-07
3.45898e-07
4.2704e-07
5.26437e-07
6.48314e-07
7.99523e-07
9.91772e-07
1.24419e-06
1.56749e-06
1.54888e-06
6.07139e-07
2.78949e-07
2.01846e-07
1.79271e-07
1.75847e-07
1.8313e-07
1.98938e-07
2.23265e-07
2.57198e-07
3.02397e-07
3.59133e-07
4.269e-07
5.03024e-07
5.81602e-07
6.53428e-07
7.0744e-07
7.33742e-07
7.27158e-07
6.89422e-07
6.28567e-07
5.55738e-07
4.8136e-07
4.12673e-07
3.53256e-07
3.03876e-07
2.63691e-07
2.31206e-07
2.04841e-07
1.83197e-07
1.65138e-07
1.49788e-07
1.3649e-07
1.24759e-07
1.14245e-07
1.04695e-07
9.59327e-08
8.78356e-08
8.03233e-08
7.3346e-08
6.68764e-08
6.09034e-08
5.54268e-08
5.04529e-08
4.59907e-08
4.20488e-08
3.86336e-08
3.57485e-08
3.33935e-08
3.1567e-08
3.02671e-08
2.94945e-08
2.92549e-08
2.95611e-08
3.04351e-08
3.19093e-08
3.4028e-08
3.68497e-08
4.04518e-08
4.49392e-08
5.04576e-08
5.72132e-08
6.54992e-08
7.57284e-08
8.84717e-08
1.04499e-07
1.24817e-07
1.50695e-07
1.83659e-07
2.25452e-07
2.77974e-07
3.43245e-07
4.23498e-07
5.2152e-07
6.41389e-07
7.89819e-07
9.78413e-07
1.22641e-06
1.54611e-06
1.52499e-06
5.55726e-07
2.54841e-07
1.8163e-07
1.58283e-07
1.5223e-07
1.55426e-07
1.65564e-07
1.82308e-07
2.06303e-07
2.38851e-07
2.81656e-07
3.35228e-07
3.99327e-07
4.71703e-07
5.47037e-07
6.16718e-07
6.70067e-07
6.97187e-07
6.92541e-07
6.57363e-07
5.99297e-07
5.29296e-07
4.57719e-07
3.91751e-07
3.34889e-07
2.87818e-07
2.49645e-07
2.1886e-07
1.93899e-07
1.734e-07
1.56269e-07
1.41673e-07
1.28991e-07
1.17772e-07
1.07694e-07
9.85266e-08
9.01116e-08
8.23422e-08
7.51499e-08
6.84943e-08
6.23549e-08
5.67252e-08
5.16073e-08
4.70075e-08
4.29332e-08
3.93905e-08
3.63824e-08
3.39092e-08
3.19691e-08
3.05598e-08
2.96812e-08
2.93379e-08
2.95415e-08
3.03127e-08
3.16829e-08
3.36959e-08
3.64105e-08
3.99048e-08
4.42846e-08
4.9697e-08
5.63493e-08
6.45355e-08
7.4669e-08
8.73212e-08
1.03261e-07
1.23494e-07
1.49279e-07
1.82121e-07
2.23723e-07
2.75917e-07
3.40624e-07
4.19951e-07
5.16547e-07
6.34344e-07
7.79917e-07
9.64763e-07
1.20821e-06
1.52406e-06
1.50102e-06
5.13853e-07
2.35414e-07
1.65781e-07
1.42244e-07
1.34577e-07
1.35121e-07
1.41525e-07
1.53243e-07
1.70596e-07
1.94482e-07
2.26273e-07
2.67646e-07
3.19093e-07
3.8051e-07
4.49804e-07
5.21928e-07
5.88618e-07
6.39534e-07
6.65035e-07
6.59726e-07
6.24902e-07
5.68186e-07
5.00403e-07
4.31649e-07
3.68766e-07
3.14935e-07
2.7062e-07
2.34818e-07
2.05997e-07
1.82628e-07
1.634e-07
1.47283e-07
1.33498e-07
1.21473e-07
1.10799e-07
1.01182e-07
9.24208e-08
8.43767e-08
7.69592e-08
7.0112e-08
6.38039e-08
5.80208e-08
5.27598e-08
4.80242e-08
4.38197e-08
4.01515e-08
3.70225e-08
3.4433e-08
3.2381e-08
3.0864e-08
2.9881e-08
2.94357e-08
2.95384e-08
3.02085e-08
3.14765e-08
3.33857e-08
3.59949e-08
3.9383e-08
4.36568e-08
4.89647e-08
5.55153e-08
6.36037e-08
7.36444e-08
8.6209e-08
1.02067e-07
1.22219e-07
1.47916e-07
1.8064e-07
2.22051e-07
2.73907e-07
3.38027e-07
4.16394e-07
5.11515e-07
6.27182e-07
7.69831e-07
9.50852e-07
1.18964e-06
1.50143e-06
1.47707e-06
4.78178e-07
2.19074e-07
1.52823e-07
1.29459e-07
1.20811e-07
1.19588e-07
1.23453e-07
1.3173e-07
1.4452e-07
1.62422e-07
1.86444e-07
2.1797e-07
2.58614e-07
3.08805e-07
3.6837e-07
4.35167e-07
5.04171e-07
5.67258e-07
6.14382e-07
6.36355e-07
6.28351e-07
5.92193e-07
5.35789e-07
4.6985e-07
4.04018e-07
3.44548e-07
2.94117e-07
2.52871e-07
2.19671e-07
1.92972e-07
1.71292e-07
1.53397e-07
1.38331e-07
1.2538e-07
1.14029e-07
1.03911e-07
9.47706e-08
8.64313e-08
7.87761e-08
7.17306e-08
6.52506e-08
5.93133e-08
5.391e-08
4.90401e-08
4.47074e-08
4.09158e-08
3.7668e-08
3.4964e-08
3.28018e-08
3.11786e-08
3.00929e-08
2.95471e-08
2.95505e-08
3.01213e-08
3.12889e-08
3.30961e-08
3.56017e-08
3.88851e-08
4.30544e-08
4.82593e-08
5.47097e-08
6.27022e-08
7.26524e-08
8.51329e-08
1.00913e-07
1.20989e-07
1.46603e-07
1.79212e-07
2.20428e-07
2.71936e-07
3.35448e-07
4.12819e-07
5.06418e-07
6.199e-07
7.59568e-07
9.36699e-07
1.17074e-06
1.47828e-06
1.45313e-06
4.47136e-07
2.05015e-07
1.41941e-07
1.18965e-07
1.09732e-07
1.0731e-07
1.094e-07
1.15253e-07
1.24825e-07
1.38504e-07
1.57028e-07
1.81466e-07
2.13201e-07
2.53638e-07
3.03181e-07
3.61475e-07
4.26159e-07
4.92028e-07
5.50938e-07
5.93122e-07
6.10048e-07
5.97823e-07
5.59177e-07
5.02484e-07
4.38292e-07
3.75584e-07
3.19825e-07
2.73059e-07
2.35073e-07
2.0459e-07
1.80071e-07
1.60106e-07
1.4355e-07
1.29531e-07
1.1741e-07
1.0673e-07
9.71707e-08
8.85117e-08
8.06043e-08
7.33523e-08
6.66964e-08
6.06036e-08
5.50581e-08
5.00552e-08
4.55959e-08
4.16829e-08
3.83181e-08
3.55015e-08
3.32308e-08
3.1503e-08
3.03159e-08
2.96712e-08
2.95768e-08
3.00499e-08
3.11189e-08
3.28258e-08
3.52293e-08
3.84096e-08
4.24757e-08
4.75788e-08
5.39305e-08
6.18288e-08
7.16907e-08
8.409e-08
9.97954e-08
1.19801e-07
1.45336e-07
1.77831e-07
2.18849e-07
2.69995e-07
3.32875e-07
4.09215e-07
5.01247e-07
6.12493e-07
7.4913e-07
9.22322e-07
1.15154e-06
1.45468e-06
1.42922e-06
4.19679e-07
1.92733e-07
1.32643e-07
1.10173e-07
1.00608e-07
9.73508e-08
9.81624e-08
1.02252e-07
1.09476e-07
1.20076e-07
1.34593e-07
1.53849e-07
1.78954e-07
2.11278e-07
2.51938e-07
3.01291e-07
3.58706e-07
4.21462e-07
4.84022e-07
5.38129e-07
5.74341e-07
5.85009e-07
5.67508e-07
5.25731e-07
4.68582e-07
4.06301e-07
3.47003e-07
2.95209e-07
2.52273e-07
2.17621e-07
1.8987e-07
1.67513e-07
1.49229e-07
1.33975e-07
1.20972e-07
1.09657e-07
9.96332e-08
9.06255e-08
8.24484e-08
7.49798e-08
6.81428e-08
6.18923e-08
5.62045e-08
5.10696e-08
4.64852e-08
4.24525e-08
3.89725e-08
3.60449e-08
3.36673e-08
3.18363e-08
3.05493e-08
2.9807e-08
2.96164e-08
2.99934e-08
3.09652e-08
3.25734e-08
3.48765e-08
3.7955e-08
4.19192e-08
4.69217e-08
5.31758e-08
6.09813e-08
7.07569e-08
8.30775e-08
9.87119e-08
1.1865e-07
1.44109e-07
1.7649e-07
2.17305e-07
2.68076e-07
3.30298e-07
4.05569e-07
4.95991e-07
6.04957e-07
7.38521e-07
9.07738e-07
1.1321e-06
1.43068e-06
1.40533e-06
3.95373e-07
1.82019e-07
1.24681e-07
1.02762e-07
9.30178e-08
8.9165e-08
8.90269e-08
9.17922e-08
9.72497e-08
1.05534e-07
1.17041e-07
1.32405e-07
1.5251e-07
1.785e-07
2.11725e-07
2.52931e-07
3.02413e-07
3.59159e-07
4.19964e-07
4.78854e-07
5.27436e-07
5.56724e-07
5.60218e-07
5.3684e-07
4.91787e-07
4.34406e-07
3.74406e-07
3.18843e-07
2.71206e-07
2.32161e-07
2.00818e-07
1.7573e-07
1.55452e-07
1.38772e-07
1.24755e-07
1.12718e-07
1.02173e-07
9.27822e-08
8.43142e-08
7.66168e-08
6.95922e-08
6.31809e-08
5.73501e-08
5.20836e-08
4.73755e-08
4.32246e-08
3.96311e-08
3.65941e-08
3.4111e-08
3.21782e-08
3.07925e-08
2.99539e-08
2.96684e-08
2.99506e-08
3.08269e-08
3.23378e-08
3.45418e-08
3.75199e-08
4.13834e-08
4.62862e-08
5.24437e-08
6.01575e-08
6.98483e-08
8.20924e-08
9.76584e-08
1.17532e-07
1.42916e-07
1.75183e-07
2.15787e-07
2.66166e-07
3.27702e-07
4.01869e-07
4.90639e-07
5.97285e-07
7.27745e-07
8.92963e-07
1.11243e-06
1.40635e-06
1.38147e-06
3.74116e-07
1.72814e-07
1.17946e-07
9.65607e-08
8.6723e-08
8.24285e-08
8.15632e-08
8.3306e-08
8.73975e-08
9.38934e-08
1.03078e-07
1.15441e-07
1.31685e-07
1.52739e-07
1.79765e-07
2.14054e-07
2.56101e-07
3.05925e-07
3.62042e-07
4.20666e-07
4.75336e-07
5.17588e-07
5.39101e-07
5.34815e-07
5.05419e-07
4.574e-07
4.00322e-07
3.43104e-07
2.91587e-07
2.4821e-07
2.13017e-07
1.84872e-07
1.62313e-07
1.43988e-07
1.28805e-07
1.15943e-07
1.0481e-07
9.49934e-08
8.62089e-08
7.82676e-08
7.1047e-08
6.44711e-08
5.84958e-08
5.30979e-08
4.8267e-08
4.39993e-08
4.02937e-08
3.71488e-08
3.45616e-08
3.25281e-08
3.1045e-08
3.01114e-08
2.97321e-08
2.99209e-08
3.07028e-08
3.21179e-08
3.42242e-08
3.7103e-08
4.08666e-08
4.56707e-08
5.17323e-08
5.93552e-08
6.89623e-08
8.11314e-08
9.66311e-08
1.16443e-07
1.41753e-07
1.73902e-07
2.14286e-07
2.64254e-07
3.25077e-07
3.98102e-07
4.85181e-07
5.89473e-07
7.16807e-07
8.78016e-07
1.09257e-06
1.38174e-06
1.35766e-06
3.55985e-07
1.6512e-07
1.12395e-07
9.14848e-08
8.159e-08
7.69508e-08
7.551e-08
7.64425e-08
7.94533e-08
8.45382e-08
9.1897e-08
1.01909e-07
1.15135e-07
1.32339e-07
1.54498e-07
1.82797e-07
2.18229e-07
2.61215e-07
3.11389e-07
3.66689e-07
4.22669e-07
4.72382e-07
5.07444e-07
5.20482e-07
5.08167e-07
4.73058e-07
4.22765e-07
3.6674e-07
3.12842e-07
2.6561e-07
2.26499e-07
1.95028e-07
1.69901e-07
1.49695e-07
1.3317e-07
1.19363e-07
1.07564e-07
9.72711e-08
8.81393e-08
7.99359e-08
7.25092e-08
6.57636e-08
5.96418e-08
5.41122e-08
4.91593e-08
4.47761e-08
4.09599e-08
3.77084e-08
3.50184e-08
3.28856e-08
3.13062e-08
3.02785e-08
2.98068e-08
2.99032e-08
3.05922e-08
3.19126e-08
3.39224e-08
3.6703e-08
4.03677e-08
4.50737e-08
5.10399e-08
5.85727e-08
6.80968e-08
8.01921e-08
9.56267e-08
1.15377e-07
1.40612e-07
1.72639e-07
2.12792e-07
2.62329e-07
3.22409e-07
3.94258e-07
4.7961e-07
5.81521e-07
7.05714e-07
8.62916e-07
1.07256e-06
1.3569e-06
1.33389e-06
3.40392e-07
1.58721e-07
1.07915e-07
8.74406e-08
7.75171e-08
7.2606e-08
7.07035e-08
7.09845e-08
7.31276e-08
7.70819e-08
8.29806e-08
9.1114e-08
1.01931e-07
1.16053e-07
1.34296e-07
1.57684e-07
1.87398e-07
2.241e-07
2.68081e-07
3.18491e-07
3.72599e-07
4.25254e-07
4.69105e-07
4.96089e-07
5.00125e-07
4.79869e-07
4.39725e-07
3.8811e-07
3.33977e-07
2.83897e-07
2.41105e-07
2.06179e-07
1.78242e-07
1.55921e-07
1.37872e-07
1.2299e-07
1.10437e-07
9.96131e-08
9.00999e-08
8.16146e-08
7.39711e-08
6.70506e-08
6.07807e-08
5.51199e-08
5.00464e-08
4.55497e-08
4.1625e-08
3.82691e-08
3.54782e-08
3.32479e-08
3.15737e-08
3.04538e-08
2.9891e-08
2.98969e-08
3.04945e-08
3.17221e-08
3.3637e-08
3.63209e-08
3.98881e-08
4.44972e-08
5.03694e-08
5.78132e-08
6.7256e-08
7.92795e-08
9.46516e-08
1.14342e-07
1.39504e-07
1.71406e-07
2.11317e-07
2.60405e-07
3.19714e-07
3.90354e-07
4.73949e-07
5.73457e-07
6.94505e-07
8.47711e-07
1.05246e-06
1.33189e-06
1.31012e-06
3.27624e-07
1.5369e-07
1.04517e-07
8.44152e-08
7.44732e-08
6.93436e-08
6.70693e-08
6.68268e-08
6.82744e-08
7.13244e-08
7.60571e-08
8.26917e-08
9.15841e-08
1.03241e-07
1.18339e-07
1.37746e-07
1.62519e-07
1.937e-07
2.31791e-07
2.76737e-07
3.27105e-07
3.79411e-07
4.27808e-07
4.64712e-07
4.82726e-07
4.77438e-07
4.4967e-07
4.0549e-07
3.53679e-07
3.02288e-07
2.5645e-07
2.18159e-07
1.87271e-07
1.6264e-07
1.42895e-07
1.26809e-07
1.13414e-07
1.02002e-07
9.20726e-08
8.3286e-08
7.54158e-08
6.83167e-08
6.18984e-08
5.61082e-08
5.09171e-08
4.63103e-08
4.22806e-08
3.88236e-08
3.5935e-08
3.361e-08
3.1844e-08
3.06342e-08
2.99829e-08
2.99007e-08
3.04094e-08
3.15466e-08
3.33691e-08
3.59589e-08
3.9431e-08
4.39456e-08
4.97261e-08
5.70837e-08
6.64486e-08
7.84045e-08
9.37189e-08
1.13355e-07
1.38447e-07
1.70223e-07
2.09887e-07
2.58509e-07
3.17024e-07
3.86426e-07
4.68239e-07
5.65332e-07
6.83239e-07
8.32471e-07
1.03235e-06
1.3068e-06
1.28641e-06
3.18267e-07
1.50191e-07
1.02244e-07
8.24077e-08
7.24323e-08
6.7117e-08
6.45398e-08
6.38772e-08
6.47706e-08
6.71027e-08
7.09114e-08
7.63585e-08
8.37253e-08
9.34229e-08
1.06012e-07
1.22224e-07
1.42977e-07
1.69348e-07
2.02072e-07
2.41554e-07
2.87265e-07
3.37069e-07
3.86669e-07
4.296e-07
4.58332e-07
4.66568e-07
4.51944e-07
4.17491e-07
3.70574e-07
3.198e-07
2.71953e-07
2.30665e-07
1.96835e-07
1.69773e-07
1.4819e-07
1.30783e-07
1.16463e-07
1.04409e-07
9.40319e-08
8.49265e-08
7.6822e-08
6.95424e-08
6.29776e-08
5.70618e-08
5.17578e-08
4.70461e-08
4.29165e-08
3.93633e-08
3.63816e-08
3.39661e-08
3.2112e-08
3.08161e-08
3.00799e-08
2.99129e-08
3.03362e-08
3.13864e-08
3.312e-08
3.5619e-08
3.89995e-08
4.34232e-08
4.9116e-08
5.63919e-08
6.56842e-08
7.7579e-08
9.28434e-08
1.12434e-07
1.37463e-07
1.69117e-07
2.08529e-07
2.56673e-07
3.14373e-07
3.82513e-07
4.62526e-07
5.57198e-07
6.7198e-07
8.17277e-07
1.01232e-06
1.28177e-06
1.26291e-06
3.12318e-07
1.48178e-07
1.01045e-07
8.13617e-08
7.133e-08
6.5851e-08
6.30252e-08
6.20269e-08
6.24827e-08
6.42512e-08
6.73358e-08
7.18522e-08
7.80207e-08
8.61739e-08
9.67734e-08
1.10432e-07