/*--------------------------------*- C++ -*----------------------------------*\
  =========                 |
  \\      /  F ield         | OpenFOAM: The Open Source CFD Toolbox
   \\    /   O peration     | Website:  https://openfoam.org
    \\  /    A nd           | Version:  7
     \\/     M anipulation  |
\*---------------------------------------------------------------------------*/
FoamFile
{
    version     2.0;
    format      ascii;
    class       volScalarField;
    location    "20000";
    object      k;
}
// * * * * * * * * * * * * * * * * * * * * * * * * * * * * * * * * * * * * * //

dimensions      [0 2 -2 0 0 0 0];

internalField   nonuniform List<scalar> 
10981
(
3.85753e-06
2.25969e-05
2.77666e-05
2.98153e-05
3.06562e-05
3.11087e-05
3.15727e-05
3.21844e-05
3.29411e-05
3.37922e-05
3.46837e-05
3.55726e-05
3.64272e-05
3.72251e-05
3.79493e-05
3.85868e-05
3.9127e-05
3.95605e-05
3.98794e-05
4.00766e-05
4.0146e-05
4.00829e-05
3.98839e-05
3.95472e-05
3.90726e-05
3.84621e-05
3.77197e-05
3.68512e-05
3.58649e-05
3.47707e-05
3.35806e-05
3.23082e-05
3.09685e-05
2.95779e-05
2.81534e-05
2.67127e-05
2.52736e-05
2.38534e-05
2.24687e-05
2.11349e-05
1.98655e-05
1.86718e-05
1.75625e-05
1.6544e-05
1.56198e-05
1.47913e-05
1.40579e-05
1.34175e-05
1.28675e-05
1.24042e-05
1.20242e-05
1.17234e-05
1.14976e-05
1.13419e-05
1.12501e-05
1.12149e-05
1.1228e-05
1.12803e-05
1.1363e-05
1.14683e-05
1.15903e-05
1.17254e-05
1.18728e-05
1.20339e-05
1.22128e-05
1.24151e-05
1.26474e-05
1.29163e-05
1.32263e-05
1.35778e-05
1.39642e-05
1.43675e-05
1.47538e-05
1.50656e-05
1.5207e-05
1.50034e-05
1.40746e-05
1.12578e-05
1.54179e-06
3.82865e-06
2.22161e-05
2.73316e-05
2.95023e-05
3.04942e-05
3.1024e-05
3.14734e-05
3.20133e-05
3.26788e-05
3.34431e-05
3.42624e-05
3.50958e-05
3.59108e-05
3.66827e-05
3.73925e-05
3.80253e-05
3.85686e-05
3.90121e-05
3.93466e-05
3.95642e-05
3.96582e-05
3.96231e-05
3.94549e-05
3.91511e-05
3.87111e-05
3.81362e-05
3.74297e-05
3.6597e-05
3.56457e-05
3.45852e-05
3.34271e-05
3.21845e-05
3.08722e-05
2.95062e-05
2.81035e-05
2.66817e-05
2.52586e-05
2.38517e-05
2.24778e-05
2.11524e-05
1.98893e-05
1.87e-05
1.75938e-05
1.6577e-05
1.56536e-05
1.4825e-05
1.40909e-05
1.34495e-05
1.28978e-05
1.24327e-05
1.20504e-05
1.17471e-05
1.15184e-05
1.13593e-05
1.12639e-05
1.1225e-05
1.12342e-05
1.12828e-05
1.13621e-05
1.14645e-05
1.15844e-05
1.17183e-05
1.18656e-05
1.20281e-05
1.22098e-05
1.24166e-05
1.2655e-05
1.29315e-05
1.32504e-05
1.36115e-05
1.40074e-05
1.44187e-05
1.48104e-05
1.51243e-05
1.52635e-05
1.5053e-05
1.4113e-05
1.12805e-05
1.546e-06
3.83155e-06
2.19269e-05
2.68581e-05
2.90367e-05
3.01225e-05
3.07374e-05
3.12202e-05
3.17429e-05
3.23625e-05
3.3072e-05
3.38402e-05
3.46311e-05
3.54133e-05
3.6162e-05
3.68576e-05
3.74841e-05
3.80281e-05
3.84784e-05
3.8825e-05
3.90595e-05
3.91745e-05
3.9164e-05
3.90234e-05
3.87499e-05
3.83421e-05
3.78009e-05
3.71289e-05
3.6331e-05
3.54141e-05
3.43872e-05
3.32612e-05
3.20489e-05
3.07646e-05
2.94242e-05
2.80443e-05
2.66424e-05
2.52364e-05
2.38438e-05
2.24815e-05
2.11654e-05
1.99094e-05
1.87253e-05
1.76227e-05
1.66081e-05
1.56858e-05
1.48575e-05
1.4123e-05
1.34806e-05
1.29276e-05
1.24607e-05
1.20763e-05
1.17704e-05
1.15388e-05
1.13765e-05
1.12776e-05
1.12349e-05
1.12403e-05
1.12852e-05
1.13611e-05
1.14607e-05
1.15785e-05
1.17113e-05
1.18588e-05
1.20228e-05
1.22076e-05
1.24191e-05
1.26639e-05
1.29484e-05
1.32764e-05
1.36474e-05
1.40524e-05
1.44715e-05
1.48684e-05
1.51837e-05
1.53198e-05
1.51017e-05
1.41495e-05
1.13005e-05
1.54985e-06
3.69548e-06
2.14833e-05
2.61655e-05
2.83034e-05
2.94611e-05
3.01771e-05
3.07376e-05
3.12984e-05
3.19234e-05
3.262e-05
3.33669e-05
3.41358e-05
3.48994e-05
3.56347e-05
3.63223e-05
3.69463e-05
3.7493e-05
3.79509e-05
3.83096e-05
3.85604e-05
3.86956e-05
3.87087e-05
3.85948e-05
3.83505e-05
3.79741e-05
3.74659e-05
3.68279e-05
3.60646e-05
3.51821e-05
3.41889e-05
3.30953e-05
3.19138e-05
3.06581e-05
2.93437e-05
2.79872e-05
2.66058e-05
2.52174e-05
2.38396e-05
2.24893e-05
2.11826e-05
1.99338e-05
1.87549e-05
1.76556e-05
1.6643e-05
1.57215e-05
1.48932e-05
1.41579e-05
1.35142e-05
1.29595e-05
1.24904e-05
1.21035e-05
1.17948e-05
1.156e-05
1.13942e-05
1.12914e-05
1.12448e-05
1.12462e-05
1.12872e-05
1.13597e-05
1.14564e-05
1.15722e-05
1.17042e-05
1.18519e-05
1.20177e-05
1.22058e-05
1.24222e-05
1.26737e-05
1.29663e-05
1.33036e-05
1.36844e-05
1.40989e-05
1.45258e-05
1.49276e-05
1.5244e-05
1.53768e-05
1.51506e-05
1.41859e-05
1.13207e-05
1.55392e-06
3.51055e-06
2.08543e-05
2.5324e-05
2.73983e-05
2.86011e-05
2.94105e-05
3.00638e-05
3.0692e-05
3.13557e-05
3.20686e-05
3.28194e-05
3.35864e-05
3.43471e-05
3.50807e-05
3.57692e-05
3.63973e-05
3.69517e-05
3.7421e-05
3.77947e-05
3.80641e-05
3.82212e-05
3.82594e-05
3.81734e-05
3.79594e-05
3.76155e-05
3.71411e-05
3.65381e-05
3.581e-05
3.49626e-05
3.40038e-05
3.29434e-05
3.17931e-05
3.05665e-05
2.92786e-05
2.79457e-05
2.6585e-05
2.52141e-05
2.38507e-05
2.2512e-05
2.12142e-05
1.99717e-05
1.8797e-05
1.77001e-05
1.66885e-05
1.57667e-05
1.49372e-05
1.42001e-05
1.35541e-05
1.29966e-05
1.25245e-05
1.21342e-05
1.18219e-05
1.15832e-05
1.14132e-05
1.13061e-05
1.12549e-05
1.1252e-05
1.12889e-05
1.13577e-05
1.14515e-05
1.15653e-05
1.16963e-05
1.18445e-05
1.20121e-05
1.22036e-05
1.24252e-05
1.26835e-05
1.29845e-05
1.33313e-05
1.3722e-05
1.4146e-05
1.45808e-05
1.49877e-05
1.53054e-05
1.54348e-05
1.52006e-05
1.42237e-05
1.13434e-05
1.55886e-06
3.32313e-06
2.01107e-05
2.44548e-05
2.64609e-05
2.76737e-05
2.85454e-05
2.92772e-05
2.9975e-05
3.06895e-05
3.14355e-05
3.22065e-05
3.29864e-05
3.37563e-05
3.44981e-05
3.51954e-05
3.58341e-05
3.64015e-05
3.68864e-05
3.72789e-05
3.757e-05
3.77518e-05
3.78176e-05
3.77618e-05
3.75802e-05
3.72705e-05
3.68318e-05
3.62652e-05
3.55738e-05
3.47628e-05
3.38395e-05
3.28131e-05
3.16949e-05
3.04979e-05
2.92368e-05
2.79276e-05
2.65873e-05
2.52336e-05
2.38841e-05
2.25561e-05
2.1266e-05
2.00286e-05
1.88568e-05
1.77608e-05
1.67485e-05
1.58249e-05
1.49927e-05
1.42523e-05
1.36025e-05
1.3041e-05
1.25646e-05
1.21698e-05
1.18527e-05
1.16091e-05
1.14341e-05
1.13218e-05
1.12656e-05
1.12578e-05
1.12902e-05
1.13551e-05
1.14458e-05
1.15575e-05
1.16876e-05
1.18362e-05
1.20058e-05
1.22009e-05
1.24278e-05
1.26931e-05
1.30026e-05
1.33591e-05
1.37599e-05
1.41935e-05
1.46362e-05
1.50482e-05
1.5367e-05
1.54931e-05
1.5251e-05
1.42625e-05
1.13688e-05
1.56559e-06
3.06804e-06
1.90302e-05
2.34554e-05
2.54826e-05
2.6719e-05
2.76361e-05
2.84267e-05
2.9183e-05
2.99469e-05
3.0731e-05
3.15306e-05
3.23326e-05
3.31209e-05
3.38794e-05
3.45934e-05
3.52495e-05
3.58359e-05
3.6342e-05
3.67581e-05
3.70754e-05
3.7286e-05
3.73832e-05
3.73611e-05
3.72153e-05
3.69429e-05
3.65426e-05
3.60149e-05
3.53625e-05
3.45898e-05
3.37036e-05
3.27125e-05
3.16274e-05
3.04607e-05
2.92268e-05
2.79414e-05
2.66214e-05
2.52842e-05
2.39476e-05
2.26291e-05
2.13453e-05
2.01114e-05
1.89405e-05
1.78434e-05
1.68283e-05
1.59008e-05
1.50637e-05
1.4318e-05
1.36625e-05
1.30951e-05
1.26127e-05
1.22119e-05
1.18887e-05
1.1639e-05
1.14578e-05
1.13394e-05
1.12773e-05
1.12638e-05
1.12912e-05
1.13518e-05
1.14392e-05
1.15486e-05
1.16777e-05
1.18267e-05
1.19983e-05
1.2197e-05
1.24293e-05
1.27017e-05
1.30198e-05
1.33861e-05
1.37972e-05
1.42404e-05
1.46911e-05
1.51082e-05
1.54282e-05
1.55512e-05
1.5302e-05
1.43034e-05
1.13997e-05
1.57447e-06
2.74215e-06
1.75532e-05
2.23023e-05
2.45016e-05
2.58144e-05
2.67715e-05
2.75936e-05
2.838e-05
2.91724e-05
2.99825e-05
3.08057e-05
3.16296e-05
3.24392e-05
3.32192e-05
3.39554e-05
3.46351e-05
3.52469e-05
3.57803e-05
3.6226e-05
3.65753e-05
3.68204e-05
3.69542e-05
3.69708e-05
3.68654e-05
3.66346e-05
3.62767e-05
3.57916e-05
3.51813e-05
3.44497e-05
3.3603e-05
3.26492e-05
3.15986e-05
3.04632e-05
2.92571e-05
2.79957e-05
2.66956e-05
2.53742e-05
2.40495e-05
2.2739e-05
2.14596e-05
2.02269e-05
1.90545e-05
1.79537e-05
1.69332e-05
1.59991e-05
1.51546e-05
1.44009e-05
1.37373e-05
1.31618e-05
1.26713e-05
1.22625e-05
1.19315e-05
1.1674e-05
1.14852e-05
1.13595e-05
1.12903e-05
1.12704e-05
1.12921e-05
1.13478e-05
1.14315e-05
1.15384e-05
1.16664e-05
1.18157e-05
1.19891e-05
1.21915e-05
1.24291e-05
1.27086e-05
1.30354e-05
1.34115e-05
1.38328e-05
1.42859e-05
1.47447e-05
1.5167e-05
1.54886e-05
1.56091e-05
1.53538e-05
1.43475e-05
1.14377e-05
1.5859e-06
2.35907e-06
1.56554e-05
2.09529e-05
2.35519e-05
2.5066e-05
2.60937e-05
2.69208e-05
2.76884e-05
2.84597e-05
2.92552e-05
3.0073e-05
3.09006e-05
3.17215e-05
3.25192e-05
3.32782e-05
3.39848e-05
3.46268e-05
3.51935e-05
3.56752e-05
3.60631e-05
3.63492e-05
3.6526e-05
3.65875e-05
3.65283e-05
3.63446e-05
3.60341e-05
3.55962e-05
3.50322e-05
3.43453e-05
3.35411e-05
3.26271e-05
3.1613e-05
3.05105e-05
2.93331e-05
2.8096e-05
2.68157e-05
2.55095e-05
2.41954e-05
2.28913e-05
2.16143e-05
2.03804e-05
1.92039e-05
1.80965e-05
1.70676e-05
1.61238e-05
1.52688e-05
1.45043e-05
1.38298e-05
1.32435e-05
1.27425e-05
1.23235e-05
1.19826e-05
1.17154e-05
1.15174e-05
1.13828e-05
1.13054e-05
1.1278e-05
1.1293e-05
1.13433e-05
1.14227e-05
1.15267e-05
1.16533e-05
1.18027e-05
1.19779e-05
1.21837e-05
1.24265e-05
1.2713e-05
1.30484e-05
1.34343e-05
1.3866e-05
1.43289e-05
1.47959e-05
1.52238e-05
1.55475e-05
1.56665e-05
1.54068e-05
1.43953e-05
1.14843e-05
1.60024e-06
1.95163e-06
1.34295e-05
1.93025e-05
2.25452e-05
2.44977e-05
2.57376e-05
2.66084e-05
2.73233e-05
2.80035e-05
2.87066e-05
2.94496e-05
3.02264e-05
3.10201e-05
3.18106e-05
3.2578e-05
3.33049e-05
3.3976e-05
3.45783e-05
3.51004e-05
3.55325e-05
3.58656e-05
3.6092e-05
3.62048e-05
3.61981e-05
3.60675e-05
3.58101e-05
3.54245e-05
3.49114e-05
3.42735e-05
3.35156e-05
3.26445e-05
3.16696e-05
3.06018e-05
2.94545e-05
2.82425e-05
2.69821e-05
2.56907e-05
2.43864e-05
2.30872e-05
2.18108e-05
2.05735e-05
1.93902e-05
1.82735e-05
1.72331e-05
1.62765e-05
1.54079e-05
1.46295e-05
1.39412e-05
1.33414e-05
1.28273e-05
1.23957e-05
1.20427e-05
1.17641e-05
1.1555e-05
1.14101e-05
1.13231e-05
1.1287e-05
1.12945e-05
1.13385e-05
1.14131e-05
1.15138e-05
1.16386e-05
1.17878e-05
1.19645e-05
1.21735e-05
1.24214e-05
1.27146e-05
1.30584e-05
1.34541e-05
1.3896e-05
1.43688e-05
1.48443e-05
1.52781e-05
1.56046e-05
1.57231e-05
1.54607e-05
1.44469e-05
1.154e-05
1.6176e-06
1.59069e-06
1.12535e-05
1.73445e-05
2.1247e-05
2.38678e-05
2.55921e-05
2.67097e-05
2.74658e-05
2.80508e-05
2.85935e-05
2.91655e-05
2.97937e-05
3.04758e-05
3.11936e-05
3.1923e-05
3.26396e-05
3.33214e-05
3.39495e-05
3.45083e-05
3.49847e-05
3.53674e-05
3.56471e-05
3.58157e-05
3.58664e-05
3.57939e-05
3.55945e-05
3.5266e-05
3.48084e-05
3.42236e-05
3.35156e-05
3.26907e-05
3.17576e-05
3.0727e-05
2.96115e-05
2.84259e-05
2.71863e-05
2.591e-05
2.46152e-05
2.33203e-05
2.20432e-05
2.0801e-05
1.9609e-05
1.84806e-05
1.74264e-05
1.64543e-05
1.55695e-05
1.47746e-05
1.407e-05
1.34542e-05
1.29249e-05
1.24786e-05
1.21116e-05
1.18196e-05
1.1598e-05
1.14413e-05
1.13435e-05
1.12977e-05
1.12968e-05
1.13339e-05
1.1403e-05
1.14999e-05
1.16225e-05
1.17713e-05
1.19492e-05
1.21612e-05
1.24138e-05
1.27137e-05
1.30657e-05
1.34709e-05
1.3923e-05
1.44057e-05
1.48897e-05
1.53297e-05
1.56593e-05
1.57782e-05
1.55145e-05
1.45009e-05
1.16029e-05
1.63734e-06
1.30248e-06
9.39805e-06
1.51836e-05
1.94125e-05
2.26745e-05
2.51029e-05
2.67971e-05
2.79023e-05
2.85981e-05
2.90635e-05
2.94455e-05
2.98426e-05
3.03046e-05
3.08428e-05
3.14432e-05
3.20799e-05
3.2723e-05
3.33446e-05
3.39204e-05
3.44301e-05
3.48576e-05
3.51894e-05
3.5415e-05
3.55257e-05
3.55146e-05
3.53768e-05
3.51093e-05
3.47109e-05
3.41828e-05
3.35282e-05
3.27528e-05
3.18645e-05
3.08735e-05
2.97922e-05
2.86348e-05
2.74173e-05
2.61571e-05
2.48724e-05
2.35818e-05
2.23038e-05
2.10558e-05
1.98541e-05
1.87126e-05
1.76428e-05
1.66534e-05
1.57504e-05
1.49369e-05
1.42139e-05
1.35802e-05
1.30336e-05
1.2571e-05
1.21884e-05
1.18817e-05
1.16462e-05
1.14765e-05
1.13668e-05
1.13104e-05
1.13003e-05
1.13297e-05
1.13929e-05
1.14855e-05
1.16055e-05
1.17535e-05
1.19323e-05
1.21471e-05
1.24043e-05
1.27105e-05
1.30707e-05
1.34853e-05
1.39475e-05
1.444e-05
1.49325e-05
1.53787e-05
1.57117e-05
1.58315e-05
1.55676e-05
1.45561e-05
1.16713e-05
1.65908e-06
1.08931e-06
7.98441e-06
1.31464e-05
1.72379e-05
2.07734e-05
2.37828e-05
2.61965e-05
2.79772e-05
2.91648e-05
2.98749e-05
3.02666e-05
3.05016e-05
3.07105e-05
3.09759e-05
3.13329e-05
3.17801e-05
3.22938e-05
3.28404e-05
3.33854e-05
3.38975e-05
3.43509e-05
3.47246e-05
3.50024e-05
3.51716e-05
3.52226e-05
3.51485e-05
3.49445e-05
3.46084e-05
3.41402e-05
3.35422e-05
3.28193e-05
3.19787e-05
3.10301e-05
2.99853e-05
2.88583e-05
2.76649e-05
2.64223e-05
2.51488e-05
2.38634e-05
2.25848e-05
2.13312e-05
2.01193e-05
1.8964e-05
1.78777e-05
1.68698e-05
1.59472e-05
1.51137e-05
1.43706e-05
1.37175e-05
1.31523e-05
1.26718e-05
1.22723e-05
1.19497e-05
1.16992e-05
1.15156e-05
1.13931e-05
1.13253e-05
1.13052e-05
1.13264e-05
1.13831e-05
1.1471e-05
1.15881e-05
1.17349e-05
1.19144e-05
1.21316e-05
1.23932e-05
1.27057e-05
1.30739e-05
1.34978e-05
1.39699e-05
1.44721e-05
1.49729e-05
1.54252e-05
1.57618e-05
1.58827e-05
1.56194e-05
1.46117e-05
1.17432e-05
1.68244e-06
9.33617e-07
6.94073e-06
1.14432e-05
1.51193e-05
1.8515e-05
2.17097e-05
2.46143e-05
2.70898e-05
2.90202e-05
3.03615e-05
3.11614e-05
3.15449e-05
3.16758e-05
3.17123e-05
3.17746e-05
3.19302e-05
3.21987e-05
3.25648e-05
3.29943e-05
3.34469e-05
3.3884e-05
3.42727e-05
3.45868e-05
3.48061e-05
3.49154e-05
3.49039e-05
3.47644e-05
3.44924e-05
3.40865e-05
3.35478e-05
3.28803e-05
3.20904e-05
3.11869e-05
3.01813e-05
2.90872e-05
2.792e-05
2.6697e-05
2.54365e-05
2.41576e-05
2.28795e-05
2.16208e-05
2.03992e-05
1.92301e-05
1.81268e-05
1.70999e-05
1.61568e-05
1.53022e-05
1.45382e-05
1.38645e-05
1.32794e-05
1.278e-05
1.23626e-05
1.20231e-05
1.17567e-05
1.15584e-05
1.14224e-05
1.13424e-05
1.13119e-05
1.13242e-05
1.13739e-05
1.14566e-05
1.15705e-05
1.17158e-05
1.18957e-05
1.21152e-05
1.2381e-05
1.26996e-05
1.30756e-05
1.35087e-05
1.39906e-05
1.45024e-05
1.50114e-05
1.54697e-05
1.58097e-05
1.5932e-05
1.56696e-05
1.46667e-05
1.18167e-05
1.70703e-06
8.1525e-07
6.15022e-06
1.0078e-05
1.32841e-05
1.6321e-05
1.9346e-05
2.23449e-05
2.52067e-05
2.77699e-05
2.98734e-05
3.14086e-05
3.23564e-05
3.27955e-05
3.28764e-05
3.27755e-05
3.26482e-05
3.25996e-05
3.26771e-05
3.288e-05
3.31773e-05
3.35248e-05
3.38768e-05
3.41932e-05
3.44416e-05
3.45974e-05
3.46427e-05
3.45652e-05
3.43573e-05
3.4015e-05
3.35378e-05
3.29281e-05
3.21914e-05
3.13359e-05
3.03723e-05
2.93136e-05
2.81752e-05
2.69741e-05
2.57286e-05
2.44581e-05
2.3182e-05
2.19195e-05
2.06889e-05
1.95066e-05
1.83867e-05
1.73405e-05
1.63766e-05
1.55004e-05
1.47146e-05
1.40195e-05
1.34138e-05
1.28947e-05
1.24586e-05
1.21013e-05
1.18184e-05
1.16047e-05
1.14545e-05
1.13619e-05
1.13203e-05
1.13233e-05
1.13655e-05
1.14427e-05
1.15529e-05
1.16965e-05
1.18766e-05
1.20982e-05
1.2368e-05
1.26926e-05
1.30763e-05
1.35185e-05
1.40102e-05
1.45313e-05
1.50484e-05
1.55125e-05
1.58556e-05
1.59792e-05
1.57179e-05
1.47201e-05
1.18904e-05
1.73254e-06
7.22097e-07
5.5277e-06
8.98941e-06
1.17635e-05
1.44024e-05
1.70945e-05
1.9895e-05
2.27717e-05
2.56177e-05
2.82698e-05
3.05434e-05
3.22827e-05
3.3409e-05
3.39494e-05
3.4029e-05
3.38304e-05
3.35386e-05
3.32964e-05
3.31829e-05
3.32169e-05
3.33743e-05
3.36089e-05
3.38688e-05
3.41066e-05
3.42838e-05
3.43712e-05
3.43482e-05
3.4201e-05
3.39217e-05
3.35067e-05
3.29568e-05
3.22757e-05
3.14707e-05
3.05517e-05
2.95313e-05
2.84243e-05
2.72476e-05
2.60195e-05
2.47594e-05
2.34873e-05
2.22227e-05
2.09844e-05
1.97898e-05
1.86538e-05
1.75888e-05
1.66041e-05
1.57061e-05
1.48982e-05
1.41813e-05
1.35543e-05
1.30149e-05
1.25594e-05
1.2184e-05
1.18839e-05
1.16543e-05
1.14895e-05
1.13837e-05
1.13305e-05
1.13239e-05
1.13582e-05
1.14295e-05
1.15357e-05
1.16773e-05
1.18572e-05
1.20808e-05
1.23545e-05
1.2685e-05
1.30765e-05
1.35277e-05
1.4029e-05
1.45594e-05
1.50842e-05
1.55537e-05
1.58998e-05
1.60243e-05
1.57639e-05
1.47714e-05
1.1963e-05
1.75869e-06
6.48555e-07
5.02889e-06
8.12506e-06
1.0546e-05
1.28137e-05
1.51442e-05
1.76265e-05
2.02822e-05
2.30798e-05
2.59232e-05
2.86552e-05
3.10807e-05
3.30109e-05
3.43182e-05
3.49795e-05
3.50882e-05
3.48237e-05
3.43935e-05
3.3975e-05
3.36799e-05
3.35486e-05
3.35659e-05
3.36854e-05
3.38497e-05
3.4005e-05
3.41068e-05
3.41215e-05
3.4026e-05
3.38053e-05
3.34515e-05
3.29617e-05
3.2338e-05
3.15857e-05
3.07139e-05
2.97344e-05
2.86615e-05
2.75119e-05
2.63037e-05
2.50566e-05
2.37905e-05
2.25257e-05
2.12815e-05
2.00759e-05
1.89249e-05
1.78418e-05
1.68368e-05
1.59172e-05
1.50871e-05
1.43481e-05
1.36997e-05
1.31396e-05
1.26645e-05
1.22704e-05
1.19528e-05
1.17068e-05
1.15271e-05
1.14077e-05
1.13427e-05
1.13258e-05
1.13519e-05
1.1417e-05
1.15189e-05
1.16583e-05
1.1838e-05
1.20633e-05
1.23409e-05
1.26773e-05
1.30764e-05
1.35366e-05
1.40475e-05
1.45869e-05
1.51192e-05
1.55938e-05
1.59424e-05
1.60672e-05
1.58072e-05
1.482e-05
1.20333e-05
1.78518e-06
5.91438e-07
4.6311e-06
7.44016e-06
9.58661e-06
1.15581e-05
1.35595e-05
1.57027e-05
1.80497e-05
2.06099e-05
2.33565e-05
2.62042e-05
2.90033e-05
3.15548e-05
3.36475e-05
3.51148e-05
3.58902e-05
3.60351e-05
3.57208e-05
3.51715e-05
3.45948e-05
3.41329e-05
3.3847e-05
3.37311e-05
3.37387e-05
3.38081e-05
3.38792e-05
3.39026e-05
3.3841e-05
3.36692e-05
3.33717e-05
3.29406e-05
3.23744e-05
3.16764e-05
3.08539e-05
2.99178e-05
2.88817e-05
2.77618e-05
2.65763e-05
2.53446e-05
2.4087e-05
2.28242e-05
2.1576e-05
2.03613e-05
1.91967e-05
1.80965e-05
1.7072e-05
1.61313e-05
1.52794e-05
1.45186e-05
1.38486e-05
1.32677e-05
1.27728e-05
1.23598e-05
1.20246e-05
1.1762e-05
1.1567e-05
1.14338e-05
1.13565e-05
1.13293e-05
1.13469e-05
1.14054e-05
1.15028e-05
1.16397e-05
1.1819e-05
1.2046e-05
1.23275e-05
1.26697e-05
1.30766e-05
1.35458e-05
1.40662e-05
1.46145e-05
1.51539e-05
1.56331e-05
1.59834e-05
1.6108e-05
1.58477e-05
1.48651e-05
1.21003e-05
1.81172e-06
5.48719e-07
4.32141e-06
6.90495e-06
8.83861e-06
1.05813e-05
1.23237e-05
1.41716e-05
1.61997e-05
1.84614e-05
2.09628e-05
2.36809e-05
2.65384e-05
2.9392e-05
3.20405e-05
3.42571e-05
3.58457e-05
3.67051e-05
3.68697e-05
3.65032e-05
3.58432e-05
3.51234e-05
3.45118e-05
3.40869e-05
3.38499e-05
3.37537e-05
3.37319e-05
3.37195e-05
3.36628e-05
3.3522e-05
3.32708e-05
3.28935e-05
3.23831e-05
3.17395e-05
3.09677e-05
3.0077e-05
2.90801e-05
2.79927e-05
2.68324e-05
2.56188e-05
2.43724e-05
2.31139e-05
2.1864e-05
2.06421e-05
1.94656e-05
1.83499e-05
1.7307e-05
1.63461e-05
1.54731e-05
1.46907e-05
1.39995e-05
1.3398e-05
1.28832e-05
1.24515e-05
1.20984e-05
1.18193e-05
1.16089e-05
1.14617e-05
1.1372e-05
1.13342e-05
1.1343e-05
1.13947e-05
1.14875e-05
1.16217e-05
1.18006e-05
1.20293e-05
1.23146e-05
1.26628e-05
1.30774e-05
1.35558e-05
1.40856e-05
1.46425e-05
1.51885e-05
1.56717e-05
1.60229e-05
1.61464e-05
1.5885e-05
1.49062e-05
1.21631e-05
1.83803e-06
5.18178e-07
4.08701e-06
6.49468e-06
8.26479e-06
9.83329e-06
1.13783e-05
1.29972e-05
1.47596e-05
1.67242e-05
1.89401e-05
2.14138e-05
2.41236e-05
2.69964e-05
2.98923e-05
3.26072e-05
3.49021e-05
3.65596e-05
3.74536e-05
3.76006e-05
3.71618e-05
3.63884e-05
3.55359e-05
3.47921e-05
3.42473e-05
3.39054e-05
3.37166e-05
3.361e-05
3.35163e-05
3.33789e-05
3.31569e-05
3.28237e-05
3.23644e-05
3.17735e-05
3.10526e-05
3.02086e-05
2.92529e-05
2.82002e-05
2.70679e-05
2.5875e-05
2.46423e-05
2.33909e-05
2.21417e-05
2.09148e-05
1.97285e-05
1.85989e-05
1.75392e-05
1.65592e-05
1.56659e-05
1.48628e-05
1.41508e-05
1.35291e-05
1.29948e-05
1.25445e-05
1.21738e-05
1.18781e-05
1.16523e-05
1.14911e-05
1.1389e-05
1.13403e-05
1.13403e-05
1.13851e-05
1.1473e-05
1.16046e-05
1.17829e-05
1.20133e-05
1.23026e-05
1.26569e-05
1.30795e-05
1.3567e-05
1.41062e-05
1.46714e-05
1.52236e-05
1.57099e-05
1.60612e-05
1.61824e-05
1.59188e-05
1.49429e-05
1.22207e-05
1.86379e-06
4.95931e-07
3.90784e-06
6.1773e-06
7.82079e-06
9.25619e-06
1.06512e-05
1.20957e-05
1.3653e-05
1.53775e-05
1.73199e-05
1.95244e-05
2.19972e-05
2.47167e-05
2.76101e-05
3.05363e-05
3.32863e-05
3.56109e-05
3.72779e-05
3.81469e-05
3.82278e-05
3.76875e-05
3.67925e-05
3.58163e-05
3.49592e-05
3.43155e-05
3.38868e-05
3.36181e-05
3.34338e-05
3.32617e-05
3.30438e-05
3.27392e-05
3.23223e-05
3.178e-05
3.11085e-05
3.03117e-05
2.93987e-05
2.83829e-05
2.72807e-05
2.61113e-05
2.4895e-05
2.36531e-05
2.24071e-05
2.11775e-05
1.99835e-05
1.88419e-05
1.77669e-05
1.67694e-05
1.58568e-05
1.50338e-05
1.43018e-05
1.36603e-05
1.31069e-05
1.26382e-05
1.22501e-05
1.1938e-05
1.1697e-05
1.15218e-05
1.14071e-05
1.13477e-05
1.13386e-05
1.13765e-05
1.14595e-05
1.15883e-05
1.17661e-05
1.19983e-05
1.22917e-05
1.26523e-05
1.3083e-05
1.35797e-05
1.41282e-05
1.47015e-05
1.52593e-05
1.57478e-05
1.60981e-05
1.6216e-05
1.59492e-05
1.4975e-05
1.22729e-05
1.88897e-06
4.78691e-07
3.76468e-06
5.92181e-06
7.46406e-06
8.79463e-06
1.00727e-05
1.13818e-05
1.27797e-05
1.43157e-05
1.60366e-05
1.79882e-05
2.02115e-05
2.27078e-05
2.54542e-05
2.83738e-05
3.13198e-05
3.40753e-05
3.63816e-05
3.79977e-05
3.87802e-05
3.87445e-05
3.80722e-05
3.7048e-05
3.59586e-05
3.50083e-05
3.42874e-05
3.37898e-05
3.34534e-05
3.31984e-05
3.29506e-05
3.26525e-05
3.22646e-05
3.17634e-05
3.11381e-05
3.03876e-05
2.95179e-05
2.85406e-05
2.74709e-05
2.63272e-05
2.51298e-05
2.39001e-05
2.26597e-05
2.14298e-05
2.02301e-05
1.90785e-05
1.79899e-05
1.6976e-05
1.60454e-05
1.52034e-05
1.4452e-05
1.37913e-05
1.32192e-05
1.27326e-05
1.23273e-05
1.1999e-05
1.17428e-05
1.15537e-05
1.14265e-05
1.13562e-05
1.1338e-05
1.13688e-05
1.14468e-05
1.15729e-05
1.17502e-05
1.19842e-05
1.22819e-05
1.2649e-05
1.3088e-05
1.35941e-05
1.41517e-05
1.47327e-05
1.52955e-05
1.57855e-05
1.61338e-05
1.62473e-05
1.5976e-05
1.50026e-05
1.23196e-05
1.91361e-06
4.64287e-07
3.64309e-06
5.70551e-06
7.16418e-06
8.40976e-06
9.59422e-06
1.07957e-05
1.20674e-05
1.34538e-05
1.49974e-05
1.6741e-05
1.87271e-05
2.09927e-05
2.35343e-05
2.63227e-05
2.92726e-05
3.2227e-05
3.4958e-05
3.7198e-05
3.87039e-05
3.93397e-05
3.91397e-05
3.83093e-05
3.71525e-05
3.59635e-05
3.49414e-05
3.41646e-05
3.36146e-05
3.32212e-05
3.29009e-05
3.25795e-05
3.22016e-05
3.17302e-05
3.11451e-05
3.04384e-05
2.96118e-05
2.86739e-05
2.76385e-05
2.65228e-05
2.53467e-05
2.41315e-05
2.28991e-05
2.16712e-05
2.04681e-05
1.93083e-05
1.82076e-05
1.71789e-05
1.62315e-05
1.53713e-05
1.46014e-05
1.3922e-05
1.33317e-05
1.28273e-05
1.24052e-05
1.20608e-05
1.17896e-05
1.15867e-05
1.1447e-05
1.13657e-05
1.13385e-05
1.13621e-05
1.1435e-05
1.15583e-05
1.17351e-05
1.19712e-05
1.22733e-05
1.26471e-05
1.30946e-05
1.36101e-05
1.41768e-05
1.47651e-05
1.53322e-05
1.58228e-05
1.61681e-05
1.6276e-05
1.59994e-05
1.50258e-05
1.23611e-05
1.93767e-06
4.51692e-07
3.53605e-06
5.5162e-06
6.90388e-06
8.07858e-06
9.18604e-06
1.03e-05
1.14696e-05
1.27355e-05
1.41361e-05
1.57107e-05
1.74995e-05
1.95427e-05
2.18697e-05
2.44725e-05
2.73124e-05
3.02915e-05
3.32381e-05
3.59108e-05
3.80348e-05
3.93714e-05
3.98046e-05
3.93995e-05
3.83929e-05
3.71073e-05
3.58366e-05
3.47654e-05
3.39525e-05
3.33642e-05
3.2922e-05
3.25402e-05
3.21467e-05
3.16892e-05
3.1135e-05
3.04675e-05
2.96822e-05
2.8784e-05
2.7784e-05
2.66982e-05
2.55456e-05
2.43473e-05
2.31254e-05
2.19016e-05
2.06971e-05
1.9531e-05
1.84201e-05
1.73779e-05
1.64147e-05
1.55375e-05
1.47497e-05
1.40523e-05
1.34441e-05
1.29225e-05
1.24837e-05
1.21235e-05
1.18374e-05
1.16207e-05
1.14685e-05
1.13763e-05
1.13398e-05
1.13562e-05
1.14241e-05
1.15445e-05
1.1721e-05
1.19592e-05
1.22658e-05
1.26466e-05
1.31028e-05
1.36277e-05
1.42034e-05
1.47986e-05
1.53693e-05
1.58596e-05
1.62008e-05
1.63023e-05
1.60192e-05
1.50446e-05
1.23974e-05
1.96118e-06
4.40384e-07
3.43975e-06
5.34702e-06
6.67305e-06
7.78723e-06
8.82976e-06
9.87062e-06
1.09556e-05
1.2122e-05
1.34048e-05
1.48396e-05
1.64641e-05
1.83172e-05
2.04364e-05
2.28404e-05
2.55159e-05
2.84116e-05
3.14127e-05
3.4329e-05
3.69042e-05
3.88593e-05
3.99693e-05
4.01501e-05
3.95094e-05
3.83196e-05
3.69178e-05
3.5588e-05
3.44902e-05
3.36587e-05
3.30429e-05
3.25573e-05
3.21163e-05
3.16512e-05
3.11147e-05
3.0479e-05
2.97316e-05
2.88721e-05
2.79082e-05
2.68538e-05
2.57267e-05
2.45476e-05
2.33382e-05
2.21209e-05
2.0917e-05
1.97466e-05
1.8627e-05
1.75728e-05
1.65951e-05
1.57017e-05
1.48968e-05
1.4182e-05
1.35565e-05
1.30179e-05
1.25627e-05
1.21869e-05
1.18861e-05
1.16556e-05
1.1491e-05
1.13878e-05
1.13422e-05
1.13512e-05
1.1414e-05
1.15316e-05
1.17077e-05
1.19482e-05
1.22596e-05
1.26475e-05
1.31126e-05
1.3647e-05
1.42314e-05
1.4833e-05
1.54066e-05
1.58957e-05
1.62319e-05
1.63259e-05
1.60356e-05
1.50591e-05
1.24288e-05
1.98416e-06
4.30246e-07
3.35322e-06
5.19541e-06
6.46728e-06
7.52899e-06
8.51582e-06
9.49442e-06
1.05077e-05
1.15901e-05
1.27735e-05
1.40905e-05
1.55756e-05
1.72659e-05
1.91989e-05
2.14095e-05
2.3902e-05
2.66569e-05
2.96063e-05
3.26146e-05
3.54702e-05
3.79023e-05
3.96332e-05
4.04622e-05
4.03504e-05
3.9457e-05
3.80906e-05
3.65941e-05
3.52306e-05
3.41277e-05
3.32915e-05
3.26555e-05
3.21293e-05
3.16296e-05
3.10932e-05
3.04786e-05
2.97635e-05
2.89403e-05
2.80122e-05
2.69901e-05
2.58903e-05
2.47323e-05
2.35378e-05
2.2329e-05
2.11278e-05
1.99548e-05
1.88282e-05
1.77634e-05
1.67725e-05
1.58639e-05
1.50427e-05
1.4311e-05
1.36687e-05
1.31135e-05
1.26422e-05
1.2251e-05
1.19356e-05
1.16915e-05
1.15145e-05
1.14003e-05
1.13454e-05
1.13471e-05
1.14047e-05
1.15195e-05
1.16953e-05
1.19382e-05
1.22546e-05
1.26499e-05
1.31239e-05
1.36678e-05
1.42607e-05
1.48683e-05
1.5444e-05
1.5931e-05
1.62612e-05
1.63467e-05
1.60484e-05
1.50694e-05
1.24556e-05
2.00665e-06
4.21521e-07
3.27775e-06
5.06217e-06
6.28639e-06
7.30236e-06
8.2409e-06
9.16575e-06
1.01174e-05
1.11275e-05
1.22255e-05
1.3441e-05
1.48058e-05
1.63543e-05
1.81226e-05
2.01473e-05
2.2458e-05
2.5048e-05
2.78842e-05
3.08784e-05
3.38708e-05
3.66269e-05
3.88641e-05
4.03145e-05
4.08144e-05
4.03828e-05
3.92355e-05
3.77122e-05
3.61501e-05
3.47798e-05
3.36903e-05
3.28591e-05
3.22063e-05
3.16399e-05
3.10811e-05
3.04735e-05
2.97824e-05
2.89914e-05
2.80976e-05
2.71081e-05
2.60367e-05
2.49017e-05
2.3724e-05
2.25258e-05
2.13293e-05
2.01557e-05
1.90237e-05
1.79498e-05
1.69468e-05
1.60239e-05
1.51872e-05
1.44394e-05
1.37807e-05
1.32092e-05
1.27222e-05
1.23158e-05
1.19859e-05
1.17283e-05
1.1539e-05
1.14138e-05
1.13495e-05
1.13438e-05
1.13962e-05
1.15082e-05
1.16839e-05
1.19292e-05
1.22509e-05
1.26536e-05
1.31367e-05
1.36901e-05
1.42912e-05
1.49042e-05
1.54813e-05
1.59652e-05
1.62885e-05
1.63648e-05
1.60577e-05
1.50757e-05
1.24779e-05
2.0287e-06
4.14749e-07
3.21631e-06
4.95061e-06
6.13336e-06
7.10956e-06
8.00616e-06
8.88434e-06
9.78233e-06
1.07297e-05
1.17533e-05
1.28804e-05
1.41401e-05
1.55641e-05
1.71871e-05
1.90454e-05
2.11738e-05
2.35889e-05
2.62772e-05
2.91879e-05
3.22085e-05
3.51517e-05
3.77604e-05
3.97458e-05
4.08609e-05
4.09938e-05
4.02311e-05
3.88454e-05
3.7197e-05
3.56031e-05
3.42514e-05
3.31893e-05
3.23685e-05
3.16992e-05
3.1091e-05
3.0472e-05
2.97936e-05
2.90286e-05
2.81664e-05
2.72088e-05
2.61665e-05
2.50558e-05
2.38967e-05
2.27111e-05
2.15213e-05
2.03488e-05
1.92132e-05
1.81316e-05
1.71177e-05
1.61817e-05
1.53303e-05
1.4567e-05
1.38923e-05
1.33051e-05
1.28025e-05
1.23811e-05
1.2037e-05
1.1766e-05
1.15643e-05
1.14282e-05
1.13545e-05
1.13414e-05
1.13885e-05
1.14977e-05
1.16733e-05
1.19212e-05
1.22482e-05
1.26586e-05
1.31509e-05
1.37137e-05
1.43227e-05
1.49405e-05
1.55183e-05
1.59982e-05
1.63137e-05
1.638e-05
1.60635e-05
1.50782e-05
1.2496e-05
2.05036e-06
4.1098e-07
3.17334e-06
4.86596e-06
6.01387e-06
6.95653e-06
7.81753e-06
8.65582e-06
9.50769e-06
1.04007e-05
1.13597e-05
1.24094e-05
1.35765e-05
1.48901e-05
1.63828e-05
1.80896e-05
2.00466e-05
2.22857e-05
2.48086e-05
2.75922e-05
3.05637e-05
3.35826e-05
3.64326e-05
3.88365e-05
4.05082e-05
4.12366e-05
4.09757e-05
3.98866e-05
3.82929e-05
3.65598e-05
3.49691e-05
3.36579e-05
3.26329e-05
3.18235e-05
3.11354e-05
3.0483e-05
2.98028e-05
2.9055e-05
2.82197e-05
2.72922e-05
2.62789e-05
2.51935e-05
2.40546e-05
2.28835e-05
2.17023e-05
2.05328e-05
1.93953e-05
1.83076e-05
1.72841e-05
1.63361e-05
1.5471e-05
1.46928e-05
1.40029e-05
1.34003e-05
1.28827e-05
1.24466e-05
1.20884e-05
1.18042e-05
1.15903e-05
1.14433e-05
1.13603e-05
1.13398e-05
1.13817e-05
1.14881e-05
1.16636e-05
1.19144e-05
1.22469e-05
1.26652e-05
1.31668e-05
1.37388e-05
1.43553e-05
1.49773e-05
1.55548e-05
1.60299e-05
1.63367e-05
1.63922e-05
1.60659e-05
1.50767e-05
1.25098e-05
2.07143e-06
4.11679e-07
3.15598e-06
4.81707e-06
5.93789e-06
6.85408e-06
7.6865e-06
8.49219e-06
9.30579e-06
1.01532e-05
1.10572e-05
1.20404e-05
1.31271e-05
1.43441e-05
1.57213e-05
1.7292e-05
1.90917e-05
2.11555e-05
2.35068e-05
2.61376e-05
2.90067e-05
3.20155e-05
3.4992e-05
3.76907e-05
3.98209e-05
4.11125e-05
4.14074e-05
4.07395e-05
3.93459e-05
3.75878e-05
3.58159e-05
3.42621e-05
3.30091e-05
3.20256e-05
3.12256e-05
3.05148e-05
2.98154e-05
2.90736e-05
2.82587e-05
2.73581e-05
2.63727e-05
2.5313e-05
2.41955e-05
2.30405e-05
2.18697e-05
2.07052e-05
1.95676e-05
1.84754e-05
1.7444e-05
1.64853e-05
1.56076e-05
1.48156e-05
1.41112e-05
1.34939e-05
1.29617e-05
1.25115e-05
1.21396e-05
1.18425e-05
1.16167e-05
1.14589e-05
1.13667e-05
1.13389e-05
1.13757e-05
1.14795e-05
1.16551e-05
1.19089e-05
1.22472e-05
1.26736e-05
1.31845e-05
1.37657e-05
1.43893e-05
1.50148e-05
1.55911e-05
1.60603e-05
1.63574e-05
1.64013e-05
1.60644e-05
1.50709e-05
1.25189e-05
2.09167e-06
4.17951e-07
3.16984e-06
4.81114e-06
5.91357e-06
6.81112e-06
7.62256e-06
8.40349e-06
9.18715e-06
9.99793e-06
1.0857e-05
1.1785e-05
1.2804e-05
1.39382e-05
1.52152e-05
1.66659e-05
1.83245e-05
2.02266e-05
2.24051e-05
2.48685e-05
2.75994e-05
3.05338e-05
3.35421e-05
3.64189e-05
3.88925e-05
4.06693e-05
4.15131e-05
4.13385e-05
4.02692e-05
3.8612e-05
3.67452e-05
3.49832e-05
3.34964e-05
3.2313e-05
3.13709e-05
3.05753e-05
2.98368e-05
2.90876e-05
2.82847e-05
2.74063e-05
2.64468e-05
2.54124e-05
2.4317e-05
2.31794e-05
2.20208e-05
2.08631e-05
1.97274e-05
1.86326e-05
1.75949e-05
1.66271e-05
1.57381e-05
1.49335e-05
1.42156e-05
1.35846e-05
1.30386e-05
1.25748e-05
1.21898e-05
1.18803e-05
1.16428e-05
1.14746e-05
1.13735e-05
1.13386e-05
1.13704e-05
1.14719e-05
1.16479e-05
1.19051e-05
1.22495e-05
1.26842e-05
1.32046e-05
1.37947e-05
1.4425e-05
1.50531e-05
1.56272e-05
1.60894e-05
1.63757e-05
1.64072e-05
1.60591e-05
1.50607e-05
1.2523e-05
2.11083e-06
4.30306e-07
3.21651e-06
4.85049e-06
5.94386e-06
6.83107e-06
7.62962e-06
8.39403e-06
9.15646e-06
9.94008e-06
1.07646e-05
1.1649e-05
1.26131e-05
1.3679e-05
1.48716e-05