/*--------------------------------*- C++ -*----------------------------------*\
  =========                 |
  \\      /  F ield         | OpenFOAM: The Open Source CFD Toolbox
   \\    /   O peration     | Website:  https://openfoam.org
    \\  /    A nd           | Version:  7
     \\/     M anipulation  |
\*---------------------------------------------------------------------------*/
FoamFile
{
    version     2.0;
    format      ascii;
    class       volScalarField;
    location    "20000";
    object      nut;
}
// * * * * * * * * * * * * * * * * * * * * * * * * * * * * * * * * * * * * * //

dimensions      [0 2 -1 0 0 0 0];

internalField   nonuniform List<scalar> 
10981
(
3.1246e-07
1.12527e-05
2.14933e-05
3.18958e-05
4.40605e-05
5.9494e-05
7.93929e-05
0.000104438
0.000134756
0.000170041
0.000209733
0.000253148
0.000299561
0.000348248
0.000398497
0.00044962
0.000500943
0.000551814
0.000601597
0.000649681
0.000695477
0.000738431
0.000778027
0.000813801
0.000845347
0.000872332
0.000894505
0.000911707
0.000923879
0.000931065
0.000933414
0.000931179
0.000924699
0.000914393
0.000900735
0.00088423
0.000865381
0.000844662
0.000822484
0.000799161
0.000774893
0.000749742
0.00072364
0.0006964
0.00066776
0.000637444
0.000605247
0.000571117
0.000535228
0.00049801
0.000460132
0.000422426
0.000385764
0.000350928
0.000318501
0.000288807
0.000261906
0.000237645
0.000215733
0.000195815
0.000177537
0.000160598
0.000144766
0.000129893
0.000115903
0.000102785
9.05679e-05
7.92962e-05
6.90054e-05
5.96996e-05
5.13356e-05
4.38182e-05
3.70123e-05
3.07435e-05
2.4816e-05
1.90173e-05
1.30956e-05
6.64696e-06
1.24885e-07
3.1012e-07
1.13689e-05
2.19782e-05
3.2692e-05
4.49106e-05
6.00195e-05
7.91153e-05
0.000102954
0.000131807
0.000165518
0.000203643
0.000245572
0.000290627
0.000338108
0.000387321
0.000437583
0.000488229
0.000538607
0.000588085
0.000636048
0.000681906
0.000725097
0.000765099
0.000801434
0.000833681
0.000861489
0.000884584
0.000902782
0.000915998
0.000924248
0.000927655
0.000926443
0.000920931
0.000911517
0.000898661
0.000882857
0.000864606
0.000844383
0.000822605
0.000799596
0.000775569
0.000750601
0.000724635
0.000697498
0.000668938
0.000638685
0.000606537
0.00057244
0.000536565
0.000499338
0.000461424
0.000423649
0.000386887
0.000351923
0.000319346
0.000289485
0.000262411
0.000237978
0.000215902
0.000195831
0.00017742
0.000160367
0.000144446
0.000129507
0.00011548
0.000102352
9.0151e-05
7.8919e-05
6.8686e-05
5.94483e-05
5.11537e-05
4.3707e-05
3.69608e-05
3.07361e-05
2.48358e-05
1.90479e-05
1.31229e-05
6.6604e-06
1.25226e-07
3.10354e-07
1.14664e-05
2.23935e-05
3.34688e-05
4.58829e-05
6.08449e-05
7.9427e-05
0.0001024
0.000130118
0.000162539
0.000199326
0.000239929
0.000283681
0.000329941
0.000378048
0.000427344
0.000477178
0.000526911
0.000575917
0.000623587
0.000669331
0.000712589
0.00075283
0.000789569
0.000822373
0.000850872
0.000874774
0.000893871
0.00090805
0.000917303
0.000921722
0.000921506
0.000916948
0.000908425
0.000896379
0.000881292
0.00086366
0.000843956
0.000822601
0.000799929
0.000776162
0.000751392
0.000725575
0.000698551
0.000670076
0.00063989
0.000607791
0.000573729
0.000537869
0.000500633
0.000462681
0.000424839
0.000387979
0.000352887
0.00032016
0.000290134
0.000262887
0.000238282
0.000216041
0.000195819
0.000177274
0.000160109
0.000144098
0.000129097
0.000115035
0.000101901
8.97208e-05
7.85327e-05
6.83603e-05
5.91921e-05
5.09762e-05
4.36022e-05
3.69161e-05
3.07351e-05
2.48606e-05
1.90818e-05
1.31517e-05
6.6737e-06
1.25538e-07
2.99349e-07
1.13757e-05
2.23693e-05
3.36786e-05
4.62728e-05
6.11804e-05
7.93845e-05
0.000101644
0.000128375
0.000159641
0.000195146
0.000234415
0.000276883
0.000321936
0.000368942
0.000417264
0.000466268
0.000515328
0.000563827
0.000611164
0.000656752
0.000700031
0.000740468
0.000777569
0.00081089
0.000840049
0.000864731
0.000884709
0.000899843
0.000910098
0.000915538
0.000916334
0.000912753
0.000905149
0.000893946
0.000879612
0.000862633
0.000843482
0.000822581
0.000800273
0.000776791
0.000752239
0.00072659
0.000699693
0.000671317
0.000641209
0.000609171
0.000575151
0.000539311
0.000502069
0.000464081
0.000426167
0.000389199
0.00035397
0.000321079
0.000290874
0.000263441
0.000238651
0.000216234
0.000195851
0.000177164
0.000159879
0.000143776
0.00012871
0.000114612
0.000101471
8.93117e-05
7.81687e-05
6.80601e-05
5.89674e-05
5.0825e-05
4.35208e-05
3.6892e-05
3.07515e-05
2.48995e-05
1.91261e-05
1.31873e-05
6.69014e-06
1.25917e-07
2.84099e-07
1.10153e-05
2.17775e-05
3.30678e-05
4.56791e-05
6.04497e-05
7.8235e-05
9.97487e-05
0.000125436
0.000155428
0.000189557
0.000227449
0.000268599
0.000312437
0.000358355
0.000405735
0.000453957
0.000502402
0.000550462
0.000597539
0.000643048
0.000686426
0.000727137
0.000764679
0.000798598
0.000828494
0.000854036
0.000874971
0.000891138
0.000902471
0.000909008
0.00091089
0.000908358
0.000901742
0.000891446
0.000877924
0.000861652
0.0008431
0.000822693
0.000800783
0.000777614
0.000753306
0.000727844
0.000701095
0.000672837
0.000642825
0.000610864
0.000576901
0.000541092
0.000503848
0.000465818
0.00042782
0.000390727
0.000355334
0.000322252
0.000291837
0.000264187
0.000239186
0.000216568
0.000196004
0.000177158
0.000159741
0.000143534
0.000128394
0.000114253
0.000101101
8.89584e-05
7.78573e-05
6.78096e-05
5.87893e-05
5.07216e-05
4.34824e-05
3.69047e-05
3.07978e-05
2.49614e-05
1.91879e-05
1.32349e-05
6.71343e-06
1.26511e-07
2.68164e-07
1.05571e-05
2.08989e-05
3.18708e-05
4.42165e-05
5.8628e-05
7.58276e-05
9.64606e-05
0.000120981
0.000149588
0.000182222
0.00021861
0.000258331
0.000300867
0.000345648
0.000392074
0.000439536
0.000487422
0.000535122
0.000582038
0.000627583
0.000671186
0.000712304
0.000750425
0.00078508
0.000815852
0.000842389
0.000864416
0.000881744
0.00089428
0.000902033
0.000905114
0.000903737
0.000898207
0.000888907
0.000876274
0.000860778
0.000842884
0.000823022
0.00080155
0.000778727
0.00075469
0.00072944
0.000702861
0.000674743
0.000644848
0.000612984
0.000579093
0.000543326
0.000506083
0.000468005
0.000429907
0.000392661
0.000357072
0.000323759
0.000293095
0.000265191
0.000239941
0.000217092
0.00019632
0.000177293
0.000159726
0.0001434
0.000128175
0.000113982
0.00010081
8.86779e-05
7.7613e-05
6.76207e-05
5.86668e-05
5.06666e-05
4.34866e-05
3.69541e-05
3.08755e-05
2.50499e-05
1.92699e-05
1.32967e-05
6.74512e-06
1.27471e-07
2.45716e-07
9.9381e-06
1.97477e-05
3.01159e-05
4.18356e-05
5.55343e-05
7.1834e-05
9.13123e-05
0.000114419
0.000141413
0.00017233
0.000207009
0.00024512
0.000286217
0.000329773
0.000375214
0.000421939
0.000469338
0.000516795
0.000563701
0.000609458
0.000653482
0.000695216
0.00073413
0.000769737
0.0008016
0.000829343
0.000852666
0.000871352
0.000885277
0.000894421
0.000898864
0.000898792
0.000894485
0.000886303
0.000874669
0.000860041
0.000842884
0.00082363
0.00080265
0.000780217
0.000756487
0.000731482
0.000705102
0.000677152
0.000647403
0.000615664
0.000581871
0.000546162
0.000508927
0.000470796
0.000432578
0.000395147
0.000359317
0.000325725
0.000294759
0.000266549
0.000241004
0.000217882
0.000196866
0.000177629
0.000159887
0.000143422
0.000128094
0.000113834
0.00010063
8.84974e-05
7.74587e-05
6.75124e-05
5.86154e-05
5.06735e-05
4.35442e-05
3.7049e-05
3.09914e-05
2.51694e-05
1.93766e-05
1.3377e-05
6.78876e-06
1.28893e-07
2.16266e-07
9.21261e-06
1.8499e-05
2.80641e-05
3.87885e-05
5.13219e-05
6.6257e-05
8.41391e-05
0.000105423
0.00013042
0.000159265
0.000191905
0.000228119
0.000267544
0.000309713
0.000354084
0.000400067
0.000447045
0.000494391
0.000541473
0.000587671
0.000632377
0.000675008
0.000715009
0.000751867
0.000785119
0.000814361
0.000839262
0.000859575
0.000875146
0.000885919
0.000891946
0.000893382
0.00089048
0.000883578
0.000873085
0.000859448
0.00084313
0.00082457
0.00080415
0.000782164
0.000758788
0.000734068
0.000707925
0.000680182
0.000650616
0.000619037
0.000585373
0.000549748
0.000512533
0.000474344
0.000435984
0.000398331
0.00036221
0.000328276
0.000296944
0.000268364
0.000242465
0.000219017
0.000197711
0.000178225
0.000160275
0.000143645
0.000128191
0.000113846
0.000100592
8.84433e-05
7.74166e-05
6.7503e-05
5.86503e-05
5.07549e-05
4.36657e-05
3.71984e-05
3.1153e-05
2.53265e-05
1.95135e-05
1.34801e-05
6.84755e-06
1.30898e-07
1.81284e-07
8.47072e-06
1.7427e-05
2.62074e-05
3.57317e-05
4.67038e-05
5.97549e-05
7.54643e-05
9.43371e-05
0.000116765
0.00014299
0.000173085
0.000206949
0.000244321
0.00028481
0.000327916
0.000373065
0.000419634
0.00046697
0.000514412
0.000561299
0.000606984
0.000650844
0.000692287
0.000730762
0.000765771
0.000796874
0.000823706
0.000845984
0.000863519
0.000876222
0.00088411
0.000887306
0.000886038
0.00088062
0.000871445
0.000858952
0.000843602
0.000825843
0.000806072
0.000784603
0.00076164
0.000737256
0.000711397
0.000683904
0.000654566
0.000623192
0.000589697
0.000554187
0.000517011
0.000478766
0.000440246
0.00040233
0.000365862
0.000331521
0.000299748
0.000270725
0.000244402
0.000220566
0.000198916
0.000179134
0.000160939
0.000144109
0.000128503
0.000114046
0.000100721
8.85369e-05
7.75042e-05
6.76067e-05
5.87832e-05
5.09205e-05
4.38593e-05
3.74092e-05
3.13664e-05
2.55267e-05
1.96852e-05
1.36099e-05
6.92439e-06
1.33609e-07
1.44688e-07
7.81241e-06
1.68027e-05
2.51092e-05
3.35963e-05
4.29652e-05
5.38703e-05
6.695e-05
8.28064e-05
0.000101964
0.000124824
0.000151627
0.000182433
0.000217118
0.000255392
0.00029682
0.000340853
0.000386864
0.000434171
0.000482063
0.000529827
0.000576756
0.000622167
0.000665414
0.000705893
0.000743056
0.000776419
0.000805573
0.000830194
0.000850053
0.000865023
0.000875085
0.000880332
0.000880959
0.000877261
0.00086961
0.00085844
0.000844211
0.000827379
0.000808361
0.000787496
0.000765016
0.000741027
0.000715504
0.000688312
0.000659251
0.00062813
0.000594851
0.000559495
0.000522384
0.000484092
0.000445398
0.000407188
0.000370319
0.000335504
0.000303217
0.000273674
0.000246854
0.000222562
0.000200509
0.000180382
0.000161897
0.000144832
0.000129041
0.000114447
0.000101026
8.87851e-05
7.77267e-05
6.78276e-05
5.90172e-05
5.1173e-05
4.41274e-05
3.76835e-05
3.16338e-05
2.5772e-05
1.98937e-05
1.37684e-05
7.02099e-06
1.37112e-07
1.1387e-07
7.37488e-06
1.68374e-05
2.51559e-05
3.31056e-05
4.13244e-05
5.04036e-05
6.09619e-05
7.36503e-05
8.91178e-05
0.000107956
0.000130638
0.000157463
0.000188525
0.000223704
0.000262682
0.000304971
0.000349954
0.000396922
0.000445112
0.000493734
0.000542004
0.000589156
0.000634464
0.000677253
0.000716907
0.000752882
0.000784714
0.000812031
0.000834556
0.00085212
0.000864666
0.000872249
0.000875036
0.000873295
0.000867384
0.000857726
0.000844781
0.000829016
0.000810866
0.000790699
0.000768779
0.000745249
0.000720117
0.000693275
0.000664538
0.000633717
0.000600697
0.000565535
0.000528519
0.000490197
0.000451329
0.000412803
0.000375496
0.000340151
0.000307288
0.000277158
0.000249775
0.000224966
0.000202455
0.000181935
0.00016312
0.000145786
0.000129781
0.000115023
0.000101486
8.91674e-05
7.80662e-05
6.815e-05
5.93391e-05
5.15016e-05
4.44612e-05
3.80145e-05
3.19495e-05
2.60581e-05
2.01356e-05
1.39531e-05
7.13622e-06
1.41372e-07
9.0558e-08
7.06812e-06
1.73313e-05
2.61105e-05
3.40615e-05
4.17876e-05
4.97738e-05
5.85181e-05
6.8592e-05
8.06475e-05
9.53828e-05
0.000113479
0.00013552
0.000161917
0.000192845
0.000228224
0.000267722
0.000310794
0.000356735
0.00040473
0.000453906
0.000503376
0.000552264
0.000599738
0.00064502
0.000687405
0.000726269
0.000761078
0.000791396
0.000816892
0.000837348
0.000852663
0.000862853
0.000868053
0.000868505
0.000864548
0.000856592
0.000845101
0.00083055
0.000813393
0.000794027
0.000772754
0.000749752
0.000725068
0.000698626
0.00067026
0.000639782
0.000607065
0.000572138
0.000535254
0.000496927
0.000457897
0.000419049
0.000381279
0.000345369
0.000311879
0.000281108
0.000253105
0.000227726
0.000204709
0.000183752
0.000164571
0.000146936
0.00013069
0.000115747
0.000102073
8.96613e-05
7.85029e-05
6.85572e-05
5.97351e-05
5.18948e-05
4.48514e-05
3.83944e-05
3.23075e-05
2.63801e-05
2.04073e-05
1.41613e-05
7.26809e-06
1.46337e-07
7.42159e-08
6.80285e-06
1.80057e-05
2.76004e-05
3.59524e-05
4.37032e-05
5.1303e-05
5.91251e-05
6.75776e-05
7.71701e-05
8.85342e-05
0.0001024
0.000119533
0.000140646
0.000166293
0.000196777
0.000232095
0.000271928
0.000315681
0.000362547
0.000411585
0.00046179
0.000512149
0.000561686
0.000609486
0.000654721
0.000696657
0.000734668
0.000768237
0.000796967
0.000820579
0.000838924
0.000851974
0.000859828
0.000862698
0.000860903
0.000854844
0.000844978
0.000831793
0.000815762
0.000797309
0.000776773
0.000754374
0.0007302
0.000704209
0.000676258
0.000646166
0.000613795
0.000579145
0.000542432
0.000504132
0.000464962
0.0004258
0.000387562
0.000351062
0.000316912
0.000285457
0.000256788
0.000230793
0.000207227
0.000185795
0.000166214
0.00014825
0.00013174
0.000116591
0.000102764
9.02457e-05
7.90187e-05
6.90338e-05
6.01923e-05
5.23422e-05
4.52895e-05
3.88166e-05
3.27023e-05
2.67337e-05
2.07054e-05
1.43903e-05
7.41439e-06
1.51944e-07
6.2962e-08
6.53351e-06
1.8605e-05
2.92774e-05
3.83512e-05
4.64601e-05
5.41114e-05
6.16603e-05
6.93981e-05
7.76501e-05
8.68531e-05
9.75963e-05
0.000110617
0.000126747
0.00014682
0.000171546
0.000201384
0.000236444
0.00027645
0.00032077
0.000368495
0.000418539
0.000469745
0.000520957
0.000571082
0.000619122
0.000664194
0.000705545
0.000742551
0.000774728
0.000801726
0.000823334
0.000839476
0.000850208
0.000855713
0.000856284
0.00085231
0.000844244
0.000832581
0.000817811
0.000800389
0.000780688
0.000758973
0.000735374
0.000709886
0.000682395
0.00065273
0.000620745
0.000586413
0.000549912
0.000511679
0.0004724
0.000432945
0.000394243
0.000357146
0.000322312
0.000290142
0.000260771
0.000234121
0.000209968
0.000188028
0.000168018
0.000149699
0.000132904
0.000117533
0.000103539
9.09028e-05
7.95982e-05
6.95671e-05
6.07002e-05
5.28353e-05
4.57687e-05
3.92755e-05
3.31295e-05
2.71152e-05
2.10266e-05
1.46373e-05
7.57303e-06
1.58138e-07
5.49468e-08
6.25311e-06
1.89721e-05
3.08236e-05
4.0897e-05
4.96514e-05
5.76237e-05
6.5236e-05
7.27877e-05
8.05127e-05
8.86648e-05
9.76045e-05
0.000107862
0.000120159
0.000135371
0.000154436
0.000178213
0.000207328
0.000242027
0.000282101
0.000326894
0.000375395
0.00042637
0.00047849
0.000530446
0.00058102
0.000629127
0.000673837
0.000714384
0.000750165
0.000780736
0.000805811
0.000825254
0.000839076
0.00084742
0.000850554
0.00084885
0.000842757
0.000832772
0.000819405
0.000803135
0.000784374
0.000763427
0.00074047
0.00071554
0.000688555
0.000659357
0.000627798
0.000593825
0.000557579
0.000519455
0.000480106
0.000440387
0.000401239
0.000363546
0.000328019
0.000295112
0.00026501
0.000237673
0.000212901
0.000190423
0.000169956
0.000151261
0.000134162
0.000118554
0.000104382
9.16184e-05
8.02296e-05
7.01471e-05
6.12507e-05
5.33673e-05
4.62836e-05
3.97668e-05
3.35855e-05
2.75216e-05
2.13685e-05
1.49003e-05
7.74222e-06
1.6487e-07
4.90734e-08
5.97587e-06
1.90707e-05
3.20387e-05
4.32818e-05
5.29521e-05
6.15057e-05
6.94001e-05
7.7008e-05
8.45975e-05
9.23645e-05
0.000100504
0.000109304
0.000119228
0.000130965
0.000145414
0.000163596
0.000186513
0.000214949
0.000249291
0.000289405
0.000334622
0.00038383
0.000435636
0.000488537
0.000541062
0.000591869
0.000639793
0.000683867
0.000723328
0.000757606
0.000786315
0.000809244
0.000826346
0.000837721
0.000843606
0.000844353
0.000840402
0.000832253
0.000820429
0.000805437
0.000787722
0.000767633
0.00074539
0.000721076
0.000694641
0.000665951
0.000634855
0.000601281
0.000565334
0.000527363
0.000487987
0.000448041
0.000408472
0.000370198
0.000333977
0.00030032
0.000269466
0.000241415
0.000215998
0.000192954
0.000172007
0.000152915
0.000135497
0.000119638
0.000105278
9.23808e-05
8.0903e-05
7.07657e-05
6.18374e-05
5.39333e-05
4.683e-05
4.0287e-05
3.40674e-05
2.79505e-05
2.17289e-05
1.51773e-05
7.92044e-06
1.721e-07
4.48567e-08
5.73316e-06
1.89925e-05
3.28557e-05
4.53172e-05
5.61148e-05
6.55078e-05
7.39235e-05
8.17698e-05
8.93916e-05
9.70403e-05
0.000104887
0.00011308
0.000121842
0.000131572
0.000142917
0.000156785
0.000174272
0.000196501
0.000224406
0.000258501
0.00029872
0.000344372
0.000394239
0.000446764
0.000500269
0.000553125
0.000603877
0.000651293
0.00069439
0.000732424
0.000764876
0.000791437
0.000811982
0.00082656
0.000835369
0.000838736
0.000837088
0.000830928
0.000820788
0.000807198
0.000790638
0.000771497
0.000750043
0.000726403
0.000700566
0.000672423
0.000641826
0.000608689
0.000573081
0.00053531
0.000495953
0.000455823
0.000415868
0.000377034
0.000340127
0.000305716
0.000274096
0.000245313
0.000219227
0.000195596
0.000174149
0.000154642
0.000136889
0.00012077
0.000106215
9.31789e-05
8.16091e-05
7.14154e-05
6.2454e-05
5.45282e-05
4.7404e-05
4.08327e-05
3.45724e-05
2.83994e-05
2.21055e-05
1.54663e-05
8.10618e-06
1.79784e-07
4.20056e-08
5.54578e-06
1.88597e-05
3.33899e-05
4.69135e-05
5.89297e-05
6.94178e-05
7.86097e-05
8.69236e-05
9.47387e-05
0.000102385
0.000110105
0.000118053
0.000126343
0.000135143
0.000144789
0.000155891
0.000169364
0.000186367
0.000208137
0.000235736
0.000269784
0.000310256
0.000356415
0.000406918
0.00046004
0.00051393
0.00056682
0.000617158
0.000663676
0.000705396
0.000741617
0.000771894
0.000796004
0.000813927
0.00082581
0.000831949
0.000832755
0.000828726
0.000820405
0.000808339
0.000793041
0.00077494
0.00075435
0.000731444
0.000706252
0.000678692
0.000648629
0.000615963
0.000580734
0.000543206
0.000503916
0.000463648
0.000423347
0.000383984
0.000346409
0.00031125
0.000278859
0.00024933
0.000222558
0.000198321
0.000176357
0.000156421
0.000138323
0.000121935
0.000107179
9.40015e-05
8.23389e-05
7.20888e-05
6.30947e-05
5.51472e-05
4.80016e-05
4.14009e-05
3.50977e-05
2.88657e-05
2.24962e-05
1.57655e-05
8.29798e-06
1.87872e-07
4.03706e-08
5.42991e-06
1.87785e-05
3.38263e-05
4.82494e-05
6.13836e-05
7.30565e-05
8.33108e-05
9.23396e-05
0.000100566
0.000108356
0.000116031
0.000123828
0.000131888
0.000140297
0.000149176
0.000158816
0.000169795
0.000183042
0.000199783
0.000221358
0.000248938
0.000283213
0.000324152
0.000370932
0.000422058
0.000475631
0.000529639
0.000582199
0.000631703
0.000676873
0.000716769
0.000750764
0.000778501
0.000799865
0.000814939
0.000823979
0.000827371
0.000825603
0.000819223
0.000808797
0.000794865
0.000777893
0.000758241
0.000736127
0.000711626
0.000684687
0.000655188
0.000623025
0.00058821
0.000550968
0.000511791
0.000471433
0.000430832
0.000390976
0.000352759
0.000316864
0.000283704
0.000253424
0.000225956
0.0002011
0.000178606
0.00015823
0.000139778
0.000123115
0.000108156
9.48374e-05
8.30831e-05
7.27786e-05
6.37536e-05
5.57858e-05
4.8619e-05
4.19881e-05
3.56403e-05
2.93469e-05
2.28985e-05
1.60728e-05
8.49428e-06
1.96303e-07
3.98027e-08
5.38927e-06
1.88078e-05
3.42923e-05
4.94887e-05
6.36268e-05
7.6423e-05
8.78154e-05
9.78734e-05
0.000106765
0.000114914
0.000122688
0.000130397
0.000138272
0.000146444
0.000154973
0.000163947
0.000173621
0.000184564
0.000197735
0.000214437
0.000236106
0.000263996
0.000298818
0.000340475
0.000388002
0.000439722
0.000493556
0.000547355
0.000599162
0.00064735
0.00069068
0.000728283
0.000759628
0.000784472
0.000802814
0.00081485
0.000820934
0.000821539
0.000817211
0.000808529
0.000796058
0.000780301
0.000761659
0.000740396
0.00071663
0.000690345
0.00066144
0.000629807
0.000595437
0.000558517
0.000519497
0.000479099
0.000438245
0.000397938
0.000359111
0.000322503
0.000288584
0.000257553
0.000229384
0.000203902
0.000180869
0.000160046
0.000141235
0.000124296
0.000109134
9.56754e-05
8.38329e-05
7.34777e-05
6.44252e-05
5.64393e-05
4.92524e-05
4.2591e-05
3.61973e-05
2.98401e-05
2.33101e-05
1.63861e-05
8.69346e-06
2.05006e-07
3.98312e-08
5.3932e-06
1.89083e-05
3.47783e-05
5.06531e-05
6.56929e-05
7.95308e-05
9.20219e-05
0.00010316
0.000113033
0.000121809
0.000129908
0.000137687
0.000145448
0.000153411
0.000161692
0.00017033
0.000179389
0.000189111
0.000200077
0.000213302
0.000230178
0.000252235
0.000280773
0.000316463
0.000359075
0.000407441
0.000459673
0.000513519
0.000566728
0.000617314
0.000663685
0.000704678
0.000739534
0.000767843
0.000789488
0.000804589
0.000813453
0.000816527
0.000814351
0.000807511
0.000796594
0.000782135
0.000764573
0.000744218
0.000721234
0.000695639
0.000667355
0.000636279
0.000602383
0.000565821
0.000527001
0.000486609
0.00044555
0.000404837
0.000365436
0.000328139
0.000293476
0.000261699
0.000232827
0.000206714
0.000183137
0.000161861
0.000142688
0.000125471
0.000110108
9.65127e-05
8.45862e-05
7.41847e-05
6.51084e-05
5.7107e-05
4.99012e-05
4.32091e-05
3.67679e-05
3.03446e-05
2.373e-05
1.67045e-05
8.89469e-06
2.13947e-07
4.01342e-08
5.41834e-06
1.90378e-05
3.525e-05
5.17256e-05
6.75796e-05
8.23815e-05
9.59181e-05
0.000108117
0.000119011
0.000128702
0.000137365
0.000145437
0.000153248
0.000161085
0.000169149
0.000177537
0.000186269
0.000195395
0.000205163
0.000216197
0.000229598
0.000246861
0.000269599
0.000299112
0.000335962
0.00037971
0.000428936
0.00048152
0.00053506
0.000587248
0.000636123
0.000680176
0.000718365
0.000750069
0.000775017
0.000793228
0.000804942
0.000810572
0.00081064
0.000805737
0.000796463
0.000783383
0.000766973
0.000747587
0.000725431
0.000700563
0.000672931
0.000642438
0.000609045
0.000572874
0.000534294
0.000493954
0.000452739
0.000411664
0.000371726
0.000333767
0.000298375
0.00026586
0.000236285
0.000209536
0.000185409
0.000163676
0.000144137
0.000126642
0.000111079
9.73512e-05
8.53451e-05
7.49017e-05
6.58051e-05
5.77905e-05
5.05665e-05
4.3843e-05
3.73528e-05
3.08608e-05
2.41584e-05
1.7028e-05
9.09771e-06
2.23124e-07
4.05719e-08
5.45245e-06
1.91709e-05
3.56814e-05
5.26871e-05
6.92746e-05
8.49656e-05
9.94907e-05
0.00011272
0.000124632
0.000135287
0.000144806
0.000153365
0.000161422
0.000169285
0.000177219
0.000185397
0.00019389
0.000202695
0.000211861
0.000221668
0.000232817
0.000246523
0.000264399
0.000288114
0.000318914
0.00035717
0.000402159
0.000452168
0.000504851
0.000557693
0.000608384
0.000655045
0.0006963
0.000731263
0.00075947
0.000780806
0.000795425
0.000803684
0.000806083
0.000803204
0.000795661
0.00078404
0.000768855
0.000750498
0.00072922
0.000705118
0.000678168
0.000648286
0.000615423
0.000579676
0.000541375
0.000501131
0.000459805
0.000418413
0.000377976
0.000339382
0.000303279
0.000270034
0.000239756
0.000212369
0.000187687
0.000165492
0.000145586
0.000127812
0.000112051
9.81933e-05
8.61117e-05
7.56306e-05
6.65171e-05
5.84912e-05
5.12495e-05
4.44938e-05
3.79523e-05
3.13887e-05
2.45952e-05
1.73564e-05
9.30248e-06
2.32539e-07
4.10666e-08
5.489e-06
1.92937e-05
3.60587e-05
5.35277e-05
7.07718e-05
8.72766e-05
0.000102727
0.000116942
0.000129849
0.000141467
0.00015188
0.000161221
0.000169713
0.000177786
0.000185731
0.000193782
0.000202081
0.000210664
0.000219513
0.000228687
0.000238526
0.000249848
0.00026401
0.000282746
0.000307744
0.000340114
0.000379952
0.000426188
0.000476793
0.000529224
0.000580908
0.000629596
0.000673547
0.00071156
0.000742932
0.000767376
0.000784929
0.000795878
0.000800683
0.000799913
0.000794184
0.000784103
0.000770214
0.000752949
0.0007326
0.000709304
0.000683069
0.000653825
0.000621521
0.000586229
0.000548244
0.000508139
0.000466749
0.000425082
0.000384184
0.000344985
0.000308189
0.000274222
0.000243244
0.000215216
0.000189974
0.000167313
0.000147036
0.000128983
0.000113025
9.90418e-05
8.68889e-05
7.63739e-05
6.72466e-05
5.92109e-05
5.19515e-05
4.51621e-05
3.8567e-05
3.19287e-05
2.50406e-05
1.76898e-05
9.50907e-06
2.42202e-07
4.159e-08
5.52509e-06
1.93992e-05
3.63762e-05
5.42472e-05
7.20777e-05
8.93277e-05
0.000105644
0.000120801
0.00013468
0.000147253
0.000158571
0.000168741
0.000177908
0.000186362
0.000194482
0.000202533
0.000210715
0.000219129
0.000227777
0.000236627
0.000245772
0.000255648
0.000267226
0.000282033
0.000301903
0.000328485
0.000362664
0.000404171
0.000451541
0.000502438
0.000554174
0.000604186
0.000650354
0.000691125
0.000725508
0.000752999
0.000773491
0.000787173
0.00079445
0.000795865
0.000792031
0.000783568
0.000771047
0.000754936
0.000735569
0.000713122
0.000687636
0.000659061
0.000627343
0.000592538
0.000554905
0.00051498
0.000473569
0.000431672
0.000390351
0.000350576
0.000313106
0.000278427
0.000246751
0.000218079
0.000192273
0.000169142
0.000148492
0.000130159
0.000114006
9.98997e-05
8.76794e-05
7.71342e-05
6.79954e-05
5.99511e-05
5.26736e-05
4.58489e-05
3.91974e-05
3.24812e-05
2.54947e-05
1.80284e-05
9.71762e-06
2.52126e-07
4.21374e-08
5.55969e-06
1.94841e-05
3.66314e-05
5.48467e-05
7.31983e-05
9.11294e-05
0.000108257
0.000124317
0.000139145
0.000152671
0.000164904
0.000175922
0.000185849
0.000194841
0.000203287
0.000211476
0.000219646
0.000227958
0.000236465
0.000245135
0.000253934
0.000263017
0.000272957
0.000284914
0.000300595
0.000321901
0.000350353
0.000386508
0.000429655
0.000477915
0.000528687
0.000579208
0.000627006
0.000670151
0.00070732
0.000737753
0.000761154
0.000777592
0.000787394
0.000791063
0.0007892
0.000782431
0.000771349
0.000756457
0.000738125
0.000716573
0.000691873
0.000663996
0.000632894
0.000598605
0.00056136
0.000521655
0.000480267
0.000438183
0.000396477
0.000356156
0.000318033
0.000282652
0.000250282
0.000220963
0.000194589
0.000170982
0.000149956
0.000131343
0.000114997
0.00010077
8.84861e-05
7.79139e-05
6.87658e-05
6.07135e-05
5.34171e-05
4.6555e-05
3.98442e-05
3.30464e-05
2.59579e-05
1.83723e-05
9.9283e-06
2.62328e-07
4.2744e-08
5.5952e-06
1.95538e-05
3.68337e-05
5.53394e-05
7.41504e-05
9.2701e-05
0.000110586
0.000127509
0.000143265
0.00015774
0.000170903
0.000182797
0.000193524
0.000203222
0.000212062
0.000220484
0.00022874
0.000237025
0.000245446
0.000254005
0.000262637
0.000271328
0.000280328
0.000290392
0.000302904
0.000319739
0.000342796
0.000373361
0.000411559
0.000456183
0.000504958
0.000555086
0.000603823
0.000648863
0.000688521
0.000721732
0.000747977
0.000767167
0.00077953
0.000785513
0.00078569
0.000780688
0.000771117
0.000757507
0.000740267
0.000719655
0.000695779
0.000668633
0.000638177
0.000604436
0.000567613
0.000528168
0.000486846
0.000444617
0.000402565
0.000361729
0.000322974
0.000286902
0.00025384
0.000223873
0.000196926
0.00017284
0.000151435
0.00013254
0.000116001
0.000101657
8.93122e-05
7.87157e-05
6.956e-05
6.14999e-05
5.41832e-05
4.72813e-05
4.05079e-05
3.36248e-05
2.64305e-05
1.87219e-05
1.01414e-05
2.72828e-07
4.34892e-08
5.63846e-06
1.9625e-05
3.70075e-05
5.57559e-05
7.49683e-05
9.4078e-05
0.000112666
0.000130408
0.000147066
0.000162481
0.000176577
0.000189357
0.000200891
0.0002113
0.000220734
0.000229481
0.000237905
0.000246232
0.000254616
0.000263108
0.000271659
0.00028018
0.000288705
0.000297627
0.000307929
0.000321235
0.000339547
0.000364665
0.000397515
0.000437698
0.000483492
0.000532281
0.000581173
0.000627535
0.000669299
0.000705064
0.00073404
0.000755947
0.000770887
0.000779227
0.000781507
0.000778339
0.000770345
0.000758081
0.000741989
0.000722365
0.000699352
0.000672971
0.000643191
0.000610029
0.000573663
0.000534518
0.000493304
0.000450974
0.000408614
0.000367294
0.000327929
0.00029118
0.000257429
0.000226812
0.000199289
0.000174719
0.000152931
0.000133754
0.000117023
0.000102564
9.01605e-05
7.95419e-05
7.03797e-05
6.23114e-05
5.49729e-05
4.80284e-05
4.1189e-05
3.42168e-05
2.69126e-05
1.90774e-05
1.03571e-05
2.83649e-07
4.46584e-08
5.71009e-06
1.97468e-05
3.72252e-05
5.61863e-05
7.57546e-05
9.53714e-05
0.000114612
0.000133134
0.00015067
0.000167021
0.000182066
0.000195764
0.000208144
0.0002193
0.00022937
0.000238524
0.000247176
0.000255592
0.00026397
0.000272415
0.000280915
0.00028937
0.000297693
0.000306006
0.000314899
0.000325623
0.000340036
0.000360192
0.000387659
0.000422874
0.000464844
0.000511359
0.000559559
0.000606569
0.000649963
0.000687971
0.000719501
0.00074404
0.000761533
0.00077225
0.000776672
0.000775393
0.000769034
0.000758171
0.000743277
0.000724685
0.000702572
0.000676986
0.000647911
0.000615357
0.00057948
0.000540671
0.000499606
0.000457217
0.00041459
0.000372822
0.000332872
0.000295461
0.000261031
0.000229766
0.000201664
0.000176608
0.000154436
0.000134976
0.000118057
0.000103485
9.1028e-05
8.03903e-05
7.12231e-05
6.31466e-05
5.57846e-05
4.87948e-05
4.1886e-05
3.48209e-05
2.74033e-05
1.94379e-05
1.05749e-05
2.94764e-07
4.65569e-08
5.83264e-06
1.99812e-05
3.75912e-05
5.6773e-05
7.66819e-05
9.67739e-05
0.000116627
0.00013589
0.000154274
0.000171549
0.000187552
0.000202194
0.00021546
0.000227407
0.000238151
0.000247847
0.000256745
0.000265263
0.000273635
0.000282017
0.000290449
0.000298856
0.000307101
0.000315129
0.000323208
0.000332184
0.000343607
0.000359524
0.00038192
0.000411974
0.000449507
0.000492909
0.000539556
0.00058647
0.00063092
0.000670772
0.000704596
0.000731617
0.000751589
0.000764659
0.000771234
0.000771872
0.000767187
0.000757768
0.000744114
0.000726589
0.000705407
0.000680643
0.000652295
0.000620372
0.00058501
0.00054657
0.000505693
0.000463288
0.000420436
0.000378257
0.000337753
0.000299703
0.000264606
0.000232702
0.000204025
0.000178485
0.000155932
0.000136194
0.000119091
0.000104414
9.19076e-05
8.12552e-05
7.20855e-05
6.40013e-05
5.66147e-05
4.95771e-05
4.25957e-05
3.54344e-05
2.78999e-05
1.98015e-05
1.07936e-05
3.06091e-07
4.93972e-08
6.02108e-06
2.03751e-05
3.81922e-05
5.7643e-05
7.79134e-05
9.8477e-05
0.000118921
0.000138894
0.000158096
0.000176273
0.00019323
0.000208833
0.00022302
0.000235801
0.000247258
0.000257526
0.000266781
0.000275445
0.00028381
0.000292094
0.000300404
0.000308715
0.000316891
0.000324785
0.000332428
0.000340304
0.000349576
0.000362087
0.000379984
0.000405011
0.000437781
0.000477411
0.000521708
0.000567759
0.000612626
0.000653837
0.000689617
0.000718899
0.000741218
0.000756569
0.000765268
0.000767823
0.000764828
0.000756877
0.000744488
0.000728056
0.000707826
0.000683902
0.000656297
0.000625023
0.000590198
0.000552154
0.000511499
0.000469117
0.000426084
0.000383535
0.000342513
0.000303851
0.00026811
0.00023558
0.000206339
0.000180324
0.000157397
0.00013739
0.000120111
0.000105338
9.27911e-05
8.21301e-05
7.29615e-05
6.48708e-05
5.74588e-05
5.03715e-05
4.33146e-05
3.6054e-05
2.83997e-05
2.01659e-05
1.10116e-05
3.17523e-07
5.33582e-08
6.28389e-06
2.09555e-05
3.90805e-05
5.88772e-05
7.95583e-05
0.000100616
0.000121652
0.000142319
0.000162314
0.000181372
0.000199271
0.000215844
0.000230985
0.000244655