/*--------------------------------*- C++ -*----------------------------------*\
  =========                 |
  \\      /  F ield         | OpenFOAM: The Open Source CFD Toolbox
   \\    /   O peration     | Website:  https://openfoam.org
    \\  /    A nd           | Version:  7
     \\/     M anipulation  |
\*---------------------------------------------------------------------------*/
FoamFile
{
    version     2.0;
    format      ascii;
    class       volScalarField;
    location    "20000";
    object      p;
}
// * * * * * * * * * * * * * * * * * * * * * * * * * * * * * * * * * * * * * //

dimensions      [0 2 -2 0 0 0 0];

internalField   nonuniform List<scalar> 
10981
(
1.89272e-12
5.44432e-08
2.86156e-07
8.084e-07
1.6155e-06
2.70532e-06
4.08583e-06
5.76456e-06
7.74807e-06
1.00439e-05
1.26613e-05
1.56093e-05
1.88956e-05
2.25235e-05
2.64915e-05
3.07921e-05
3.54114e-05
4.03293e-05
4.55199e-05
5.09524e-05
5.65915e-05
6.23994e-05
6.83361e-05
7.43608e-05
8.04332e-05
8.65143e-05
9.25669e-05
9.85567e-05
0.000104452
0.000110226
0.000115852
0.000121311
0.000126583
0.000131654
0.000136512
0.000141147
0.000145552
0.000149722
0.000153655
0.000157351
0.00016081
0.000164037
0.000167035
0.000169811
0.000172374
0.000174731
0.000176892
0.000178868
0.000180667
0.000182299
0.000183775
0.000185103
0.000186292
0.000187353
0.000188293
0.000189123
0.000189853
0.000190493
0.000191051
0.000191537
0.00019196
0.000192327
0.000192644
0.000192918
0.000193153
0.000193354
0.000193524
0.000193666
0.000193783
0.000193877
0.00019395
0.000194005
0.000194044
0.00019407
0.000194084
0.000194089
0.000194088
0.000194084
0.00019408
3.56659e-06
3.54825e-06
3.66248e-06
4.05349e-06
4.73293e-06
5.70129e-06
6.96647e-06
8.5365e-06
1.0418e-05
1.26169e-05
1.51389e-05
1.79891e-05
2.11707e-05
2.46841e-05
2.85256e-05
3.26866e-05
3.71533e-05
4.19067e-05
4.69226e-05
5.21723e-05
5.76236e-05
6.32414e-05
6.89886e-05
7.48275e-05
8.07204e-05
8.66302e-05
9.2522e-05
9.83626e-05
0.000104122
0.000109772
0.000115288
0.00012065
0.000125838
0.000130837
0.000135634
0.000140218
0.000144582
0.00014872
0.000152627
0.000156303
0.000159748
0.000162964
0.000165954
0.000168726
0.000171285
0.000173641
0.000175801
0.000177775
0.000179573
0.000181205
0.00018268
0.000184007
0.000185195
0.000186254
0.000187194
0.000188023
0.000188752
0.000189391
0.000189948
0.000190433
0.000190855
0.00019122
0.000191536
0.000191808
0.000192042
0.00019224
0.000192408
0.000192548
0.000192663
0.000192754
0.000192825
0.000192877
0.000192914
0.000192937
0.000192949
0.000192953
0.000192951
0.000192945
0.000192941
5.11358e-06
5.05501e-06
5.13219e-06
5.51213e-06
6.20722e-06
7.21205e-06
8.53057e-06
1.01685e-05
1.21293e-05
1.44142e-05
1.70229e-05
1.99531e-05
2.32009e-05
2.67602e-05
3.06224e-05
3.47752e-05
3.92029e-05
4.38863e-05
4.88026e-05
5.39261e-05
5.92284e-05
6.4679e-05
7.02459e-05
7.58964e-05
8.15975e-05
8.73168e-05
9.30228e-05
9.86856e-05
0.000104277
0.000109772
0.000115146
0.000120379
0.000125453
0.00013035
0.000135059
0.000139567
0.000143865
0.000147948
0.000151809
0.000155446
0.000158859
0.000162049
0.000165019
0.000167773
0.000170318
0.000172662
0.000174812
0.000176777
0.000178568
0.000180192
0.00018166
0.000182981
0.000184164
0.000185219
0.000186154
0.000186979
0.000187705
0.000188341
0.000188895
0.000189378
0.000189797
0.00019016
0.000190474
0.000190743
0.000190974
0.00019117
0.000191335
0.000191472
0.000191584
0.000191672
0.000191741
0.000191791
0.000191825
0.000191846
0.000191856
0.000191858
0.000191854
0.000191848
0.000191843
9.06217e-07
1.07608e-06
1.56979e-06
2.43503e-06
3.65628e-06
5.22135e-06
7.11835e-06
9.3328e-06
1.18499e-05
1.46559e-05
1.77386e-05
2.10866e-05
2.469e-05
2.85391e-05
3.26235e-05
3.69316e-05
4.14503e-05
4.61645e-05
5.10571e-05
5.61089e-05
6.12988e-05
6.66038e-05
7.19996e-05
7.74608e-05
8.29612e-05
8.84747e-05
9.39751e-05
9.94371e-05
0.000104836
0.000110149
0.000115355
0.000120433
0.000125367
0.000130139
0.000134737
0.000139148
0.000143362
0.000147372
0.000151172
0.000154757
0.000158126
0.000161279
0.000164218
0.000166947
0.000169471
0.000171796
0.00017393
0.000175882
0.000177661
0.000179275
0.000180733
0.000182045
0.000183221
0.000184268
0.000185197
0.000186017
0.000186738
0.000187369
0.00018792
0.000188399
0.000188815
0.000189175
0.000189486
0.000189752
0.00018998
0.000190173
0.000190335
0.000190468
0.000190577
0.000190662
0.000190726
0.000190773
0.000190803
0.000190821
0.000190828
0.000190828
0.000190822
0.000190813
0.000190807
-4.0839e-06
-3.59607e-06
-2.55962e-06
-1.1012e-06
7.32848e-07
2.93349e-06
5.47981e-06
8.34162e-06
1.14878e-05
1.48892e-05
1.85199e-05
2.23576e-05
2.63834e-05
3.05816e-05
3.49391e-05
3.94441e-05
4.40862e-05
4.8855e-05
5.37396e-05
5.87283e-05
6.38082e-05
6.89648e-05
7.41823e-05
7.94434e-05
8.47295e-05
9.00212e-05
9.52982e-05
0.00010054
0.000105727
0.000110838
0.000115855
0.000120759
0.000125534
0.000130163
0.000134632
0.00013893
0.000143046
0.00014697
0.000150695
0.000154217
0.000157532
0.00016064
0.00016354
0.000166237
0.000168732
0.000171034
0.000173148
0.000175082
0.000176845
0.000178445
0.000179891
0.000181192
0.000182358
0.000183396
0.000184317
0.000185131
0.000185845
0.000186471
0.000187017
0.000187492
0.000187904
0.00018826
0.000188567
0.00018883
0.000189054
0.000189243
0.000189401
0.000189531
0.000189636
0.000189717
0.000189778
0.00018982
0.000189848
0.000189862
0.000189867
0.000189863
0.000189855
0.000189845
0.000189838
-4.23239e-06
-3.5944e-06
-2.27803e-06
-5.11251e-07
1.62932e-06
4.13751e-06
6.99256e-06
1.01612e-05
1.36077e-05
1.72968e-05
2.11952e-05
2.52727e-05
2.95031e-05
3.38643e-05
3.83381e-05
4.29102e-05
4.75687e-05
5.23043e-05
5.71089e-05
6.19749e-05
6.68949e-05
7.18606e-05
7.68629e-05
8.18911e-05
8.69332e-05
9.19757e-05
9.7004e-05
0.000102002
0.000106954
0.000111842
0.000116649
0.000121359
0.000125956
0.000130424
0.000134749
0.000138918
0.000142919
0.000146743
0.000150382
0.000153829
0.000157079
0.000160131
0.000162984
0.000165639
0.0001681
0.000170372
0.000172459
0.00017437
0.000176113
0.000177694
0.000179124
0.000180411
0.000181563
0.000182591
0.000183502
0.000184306
0.000185013
0.000185632
0.000186172
0.000186641
0.000187048
0.0001874
0.000187702
0.000187961
0.000188181
0.000188366
0.00018852
0.000188646
0.000188747
0.000188825
0.000188882
0.000188922
0.000188946
0.000188959
0.000188961
0.000188956
0.000188947
0.000188935
0.000188928
-1.18444e-06
-4.86028e-07
1.00632e-06
2.99104e-06
5.34063e-06
8.04228e-06
1.10735e-05
1.43987e-05
1.79802e-05
2.17809e-05
2.57651e-05
2.98998e-05
3.41559e-05
3.85092e-05
4.29401e-05
4.74334e-05
5.19781e-05
5.6566e-05
6.11917e-05
6.58507e-05
7.05397e-05
7.5255e-05
7.99921e-05
8.47456e-05
8.95084e-05
9.42715e-05
9.90247e-05
0.000103756
0.000108451
0.000113097
0.000117678
0.000122178
0.000126582
0.000130875
0.000135043
0.000139072
0.000142949
0.000146663
0.000150206
0.00015357
0.000156749
0.000159739
0.000162539
0.000165149
0.00016757
0.000169807
0.000171865
0.000173751
0.00017547
0.000177032
0.000178444
0.000179714
0.000180852
0.000181867
0.000182767
0.000183561
0.00018426
0.000184871
0.000185405
0.000185869
0.00018627
0.000186617
0.000186915
0.000187169
0.000187385
0.000187567
0.000187717
0.000187839
0.000187936
0.000188011
0.000188065
0.000188101
0.000188123
0.000188132
0.000188132
0.000188125
0.000188114
0.000188101
0.000188093
7.42668e-06
7.97273e-06
9.3647e-06
1.12821e-05
1.35352e-05
1.61063e-05
1.89778e-05
2.21175e-05
2.54925e-05
2.90707e-05
3.28207e-05
3.67118e-05
4.0716e-05
4.48088e-05
4.89703e-05
5.31846e-05
5.74405e-05
6.17298e-05
6.60475e-05
7.03908e-05
7.47578e-05
7.91472e-05
8.35571e-05
8.79848e-05
9.24262e-05
9.68754e-05
0.000101325
0.000105765
0.000110184
0.000114569
0.000118908
0.000123184
0.000127384
0.000131491
0.000135491
0.00013937
0.000143114
0.000146712
0.000150153
0.000153428
0.00015653
0.000159454
0.000162197
0.000164757
0.000167137
0.000169337
0.000171364
0.000173221
0.000174917
0.000176457
0.000177849
0.000179103
0.000180226
0.000181228
0.000182116
0.0001829
0.00018359
0.000184194
0.000184721
0.000185178
0.000185574
0.000185916
0.000186209
0.00018646
0.000186672
0.000186849
0.000186996
0.000187114
0.000187207
0.000187278
0.000187329
0.000187362
0.00018738
0.000187387
0.000187385
0.000187376
0.000187362
0.000187348
0.000187339
2.26815e-05
2.28484e-05
2.38169e-05
2.53281e-05
2.71236e-05
2.91809e-05
3.14959e-05
3.40437e-05
3.68002e-05
3.97465e-05
4.2864e-05
4.6133e-05
4.95334e-05
5.30451e-05
5.66501e-05
6.03326e-05
6.408e-05
6.78827e-05
7.17337e-05
7.56285e-05
7.95638e-05
8.35373e-05
8.75469e-05
9.15898e-05
9.56624e-05
9.97594e-05
0.000103874
0.000107998
0.00011212
0.000116228
0.00012031
0.000124351
0.000128335
0.000132247
0.000136072
0.000139794
0.0001434
0.000146876
0.000150209
0.000153391
0.000156413
0.000159267
0.00016195
0.000164459
0.000166795
0.000168957
0.000170951
0.000172779
0.000174449
0.000175967
0.00017734
0.000178576
0.000179684
0.000180672
0.000181548
0.000182322
0.000183003
0.000183598
0.000184118
0.000184569
0.00018496
0.000185297
0.000185585
0.000185831
0.000186039
0.000186213
0.000186355
0.00018647
0.00018656
0.000186627
0.000186675
0.000186705
0.000186721
0.000186725
0.00018672
0.000186709
0.000186694
0.000186678
0.000186668
4.27782e-05
4.24684e-05
4.28221e-05
4.37025e-05
4.48038e-05
4.60984e-05
4.76023e-05
4.93007e-05
5.11757e-05
5.3218e-05
5.54241e-05
5.77914e-05
6.03155e-05
6.29885e-05
6.57997e-05
6.87364e-05
7.1786e-05
7.49368e-05
7.81789e-05
8.15042e-05
8.49062e-05
8.83796e-05
9.19196e-05
9.55213e-05
9.91796e-05
0.000102888
0.000106639
0.000110423
0.000114229
0.000118046
0.000121859
0.000125654
0.000129414
0.000133124
0.000136768
0.000140328
0.000143791
0.00014714
0.000150364
0.00015345
0.000156389
0.000159172
0.000161794
0.000164251
0.000166541
0.000168665
0.000170625
0.000172424
0.000174068
0.000175564
0.000176917
0.000178135
0.000179227
0.000180201
0.000181066
0.000181829
0.000182501
0.000183088
0.000183601
0.000184046
0.000184431
0.000184763
0.000185047
0.000185289
0.000185493
0.000185663
0.000185802
0.000185914
0.000186
0.000186064
0.000186109
0.000186136
0.00018615
0.000186152
0.000186145
0.000186132
0.000186115
0.000186098
0.000186087
6.49318e-05
6.43021e-05
6.41613e-05
6.44774e-05
6.49446e-05
6.55218e-05
6.62356e-05
6.70833e-05
6.80522e-05
6.91367e-05
7.03406e-05
7.16753e-05
7.3157e-05
7.4801e-05
7.66174e-05
7.86092e-05
8.07728e-05
8.31001e-05
8.55806e-05
8.82033e-05
9.09576e-05
9.38335e-05
9.68219e-05
9.99139e-05
0.000103101
0.000106373
0.000109721
0.000113132
0.000116596
0.000120098
0.000123623
0.000127155
0.000130677
0.000134173
0.000137624
0.000141013
0.000144324
0.00014754
0.000150647
0.000153631
0.000156482
0.000159189
0.000161745
0.000164145
0.000166387
0.000168469
0.000170393
0.000172161
0.000173778
0.000175249
0.00017658
0.00017778
0.000178855
0.000179814
0.000180666
0.000181418
0.000182079
0.000182658
0.000183163
0.000183602
0.000183981
0.000184308
0.000184588
0.000184825
0.000185025
0.000185192
0.000185328
0.000185436
0.00018552
0.000185582
0.000185624
0.000185649
0.000185661
0.000185661
0.000185653
0.000185639
0.000185621
0.000185602
0.000185591
8.43302e-05
8.36248e-05
8.32664e-05
8.32878e-05
8.34295e-05
8.36353e-05
8.39207e-05
8.42821e-05
8.47044e-05
8.51758e-05
8.56923e-05
8.62601e-05
8.68986e-05
8.76379e-05
8.85126e-05
8.95543e-05
9.07852e-05
9.22169e-05
9.38514e-05
9.56839e-05
9.77056e-05
9.99055e-05
0.000102272
0.000104792
0.000107453
0.000110243
0.000113147
0.000116153
0.000119245
0.000122408
0.000125624
0.000128875
0.000132144
0.000135411
0.000138658
0.000141865
0.000145014
0.000148088
0.000151071
0.000153946
0.000156703
0.000159329
0.000161815
0.000164156
0.000166346
0.000168383
0.000170269
0.000172003
0.000173591
0.000175036
0.000176345
0.000177524
0.000178582
0.000179525
0.000180363
0.000181103
0.000181755
0.000182325
0.000182822
0.000183254
0.000183627
0.000183949
0.000184224
0.000184457
0.000184654
0.000184817
0.000184949
0.000185055
0.000185136
0.000185195
0.000185235
0.000185259
0.000185268
0.000185267
0.000185257
0.000185242
0.000185222
0.000185202
0.00018519
9.99669e-05
9.93006e-05
9.8877e-05
9.87601e-05
9.87568e-05
9.88126e-05
9.89344e-05
9.91145e-05
9.9331e-05
9.95609e-05
9.97845e-05
9.99899e-05
0.000100178
0.000100365
0.000100588
0.000100894
0.000101332
0.000101945
0.000102764
0.000103803
0.000105067
0.000106555
0.000108257
0.000110161
0.000112255
0.000114523
0.000116949
0.000119517
0.000122209
0.000125007
0.000127891
0.000130842
0.00013384
0.000136864
0.000139892
0.000142905
0.000145882
0.000148804
0.000151653
0.000154413
0.000157068
0.000159607
0.000162018
0.000164294
0.000166428
0.000168418
0.000170262
0.000171961
0.000173517
0.000174935
0.00017622
0.000177378
0.000178417
0.000179344
0.000180167
0.000180895
0.000181535
0.000182096
0.000182585
0.00018301
0.000183377
0.000183693
0.000183963
0.000184192
0.000184385
0.000184544
0.000184674
0.000184777
0.000184855
0.000184911
0.000184949
0.00018497
0.000184978
0.000184974
0.000184963
0.000184946
0.000184925
0.000184904
0.00018489
0.000112283
0.000111696
0.000111275
0.000111089
0.000111006
0.000110986
0.000111037
0.000111159
0.000111334
0.000111532
0.000111722
0.000111872
0.000111959
0.00011197
0.000111917
0.000111831
0.000111764
0.00011178
0.000111937
0.000112283
0.000112848
0.00011365
0.000114694
0.000115974
0.000117483
0.000119208
0.000121131
0.000123237
0.000125505
0.000127916
0.000130448
0.00013308
0.000135789
0.000138552
0.000141348
0.000144153
0.000146946
0.000149705
0.000152411
0.000155045
0.000157591
0.000160036
0.000162365
0.000164571
0.000166645
0.000168583
0.000170382
0.000172042
0.000173564
0.000174952
0.000176211
0.000177346
0.000178364
0.000179274
0.000180081
0.000180795
0.000181424
0.000181974
0.000182455
0.000182872
0.000183232
0.000183542
0.000183807
0.000184032
0.00018422
0.000184376
0.000184502
0.000184602
0.000184677
0.000184731
0.000184766
0.000184785
0.000184791
0.000184785
0.000184772
0.000184753
0.000184731
0.000184708
0.000184694
0.000121984
0.000121483
0.000121093
0.000120878
0.000120746
0.000120669
0.000120662
0.000120735
0.000120884
0.000121092
0.000121329
0.000121558
0.000121735
0.000121822
0.000121795
0.000121651
0.000121415
0.000121139
0.00012089
0.000120739
0.000120749
0.000120965
0.000121413
0.000122108
0.000123051
0.000124237
0.000125655
0.000127289
0.000129121
0.00013113
0.000133295
0.000135591
0.000137997
0.000140486
0.000143035
0.00014562
0.000148216
0.000150801
0.000153353
0.000155853
0.000158282
0.000160624
0.000162865
0.000164995
0.000167003
0.000168884
0.000170633
0.000172251
0.000173736
0.000175091
0.000176321
0.000177432
0.000178428
0.000179318
0.000180108
0.000180807
0.000181423
0.000181962
0.000182433
0.000182842
0.000183195
0.000183499
0.000183758
0.000183978
0.000184162
0.000184314
0.000184437
0.000184533
0.000184606
0.000184657
0.000184689
0.000184706
0.000184709
0.000184702
0.000184687
0.000184667
0.000184643
0.000184619
0.000184605
0.000129754
0.00012933
0.00012898
0.00012876
0.0001286
0.000128481
0.000128419
0.00012843
0.000128523
0.0001287
0.000128947
0.000129238
0.00012953
0.000129774
0.000129921
0.000129931
0.000129789
0.000129511
0.000129142
0.00012875
0.000128415
0.000128208
0.000128184
0.00012838
0.000128817
0.000129504
0.000130439
0.000131614
0.000133012
0.000134618
0.000136409
0.000138363
0.000140455
0.00014266
0.000144952
0.000147305
0.000149695
0.000152096
0.000154485
0.000156842
0.000159145
0.000161377
0.000163523
0.000165569
0.000167506
0.000169325
0.000171021
0.000172592
0.000174036
0.000175357
0.000176556
0.000177638
0.000178611
0.000179479
0.000180251
0.000180934
0.000181535
0.000182062
0.000182522
0.000182922
0.000183267
0.000183564
0.000183818
0.000184033
0.000184212
0.00018436
0.000184479
0.000184572
0.000184642
0.00018469
0.000184721
0.000184735
0.000184736
0.000184727
0.00018471
0.000184689
0.000184664
0.000184639
0.000184624
0.000136126
0.000135766
0.000135456
0.000135241
0.000135071
0.000134928
0.000134827
0.000134783
0.000134813
0.000134928
0.000135132
0.000135418
0.000135762
0.000136123
0.000136447
0.000136674
0.000136754
0.000136661
0.000136397
0.000136005
0.000135552
0.000135119
0.000134783
0.000134607
0.000134634
0.000134892
0.000135394
0.000136141
0.000137128
0.000138342
0.000139765
0.000141376
0.000143152
0.000145066
0.000147094
0.000149208
0.000151382
0.000153591
0.000155809
0.000158014
0.000160183
0.000162298
0.000164342
0.000166299
0.000168158
0.00016991
0.000171548
0.000173068
0.000174468
0.00017575
0.000176915
0.000177968
0.000178914
0.000179759
0.000180511
0.000181176
0.000181762
0.000182275
0.000182724
0.000183113
0.00018345
0.00018374
0.000183987
0.000184196
0.000184371
0.000184515
0.00018463
0.00018472
0.000184786
0.000184832
0.00018486
0.000184872
0.000184871
0.00018486
0.000184842
0.000184819
0.000184793
0.000184768
0.000184752
0.000141457
0.000141148
0.000140873
0.00014067
0.000140498
0.000140344
0.000140219
0.000140136
0.000140111
0.000140159
0.000140295
0.000140526
0.000140848
0.000141242
0.000141669
0.000142072
0.000142384
0.000142547
0.000142521
0.000142304
0.000141931
0.000141468
0.000140997
0.000140598
0.000140336
0.00014026
0.000140402
0.000140777
0.000141392
0.000142241
0.000143314
0.000144593
0.000146057
0.000147683
0.000149445
0.000151316
0.00015327
0.000155281
0.000157321
0.000159367
0.000161396
0.000163388
0.000165322
0.000167184
0.000168961
0.00017064
0.000172215
0.000173681
0.000175033
0.000176273
0.000177401
0.000178422
0.000179339
0.00018016
0.000180889
0.000181535
0.000182103
0.000182602
0.000183038
0.000183417
0.000183745
0.000184026
0.000184266
0.00018447
0.000184639
0.000184779
0.00018489
0.000184976
0.00018504
0.000185083
0.000185108
0.000185118
0.000185116
0.000185103
0.000185084
0.00018506
0.000185033
0.000185007
0.000184991
0.000146033
0.000145766
0.000145521
0.000145329
0.00014516
0.000145001
0.000144862
0.000144752
0.000144686
0.000144679
0.000144747
0.000144904
0.000145161
0.000145517
0.000145956
0.000146442
0.000146916
0.000147307
0.000147547
0.000147591
0.000147429
0.000147094
0.000146651
0.000146181
0.000145764
0.000145467
0.000145341
0.000145417
0.000145716
0.000146243
0.000146997
0.000147966
0.000149134
0.00015048
0.000151982
0.000153612
0.000155346
0.000157155
0.000159014
0.000160897
0.000162781
0.000164643
0.000166464
0.000168225
0.000169914
0.000171516
0.000173024
0.000174431
0.000175732
0.000176927
0.000178016
0.000179001
0.000179888
0.000180681
0.000181386
0.000182011
0.000182561
0.000183045
0.000183467
0.000183834
0.000184151
0.000184424
0.000184657
0.000184854
0.000185018
0.000185153
0.00018526
0.000185343
0.000185403
0.000185444
0.000185467
0.000185474
0.00018547
0.000185456
0.000185436
0.00018541
0.000185383
0.000185356
0.00018534
0.000150033
0.000149802
0.000149585
0.00014941
0.00014925
0.000149096
0.000148955
0.000148834
0.000148745
0.000148701
0.000148718
0.000148812
0.000149
0.000149291
0.000149688
0.000150176
0.000150719
0.000151259
0.000151719
0.000152026
0.000152128
0.000152012
0.000151713
0.000151295
0.000150841
0.000150431
0.000150129
0.000149985
0.000150033
0.00015029
0.000150766
0.000151456
0.000152351
0.000153434
0.000154685
0.000156081
0.000157597
0.000159206
0.000160883
0.0001626
0.000164335
0.000166064
0.000167765
0.000169422
0.000171018
0.000172539
0.000173975
0.000175319
0.000176565
0.000177711
0.000178758
0.000179706
0.000180559
0.000181323
0.000182002
0.000182604
0.000183135
0.000183601
0.000184008
0.000184362
0.000184669
0.000184932
0.000185157
0.000185347
0.000185506
0.000185635
0.000185738
0.000185818
0.000185875
0.000185912
0.000185933
0.000185939
0.000185933
0.000185918
0.000185896
0.00018587
0.000185842
0.000185815
0.0001858
0.000153581
0.00015338
0.000153188
0.000153029
0.000152881
0.000152736
0.000152598
0.000152473
0.000152371
0.000152301
0.000152279
0.000152319
0.000152439
0.000152653
0.000152974
0.000153404
0.00015393
0.000154518
0.000155107
0.000155621
0.000155983
0.000156135
0.000156066
0.000155808
0.000155429
0.000155012
0.000154632
0.000154354
0.000154224
0.000154274
0.000154523
0.000154976
0.000155631
0.000156477
0.000157499
0.000158675
0.000159984
0.0001614
0.000162897
0.000164452
0.000166038
0.000167632
0.000169214
0.000170763
0.000172263
0.0001737
0.000175062
0.000176341
0.00017753
0.000178625
0.000179627
0.000180535
0.000181354
0.000182087
0.000182739
0.000183317
0.000183827
0.000184274
0.000184666
0.000185006
0.000185301
0.000185555
0.000185771
0.000185954
0.000186107
0.000186231
0.000186329
0.000186405
0.000186459
0.000186494
0.000186512
0.000186516
0.000186508
0.000186491
0.000186468
0.000186442
0.000186413
0.000186386
0.000186371
0.000156826
0.000156646
0.000156474
0.000156328
0.00015619
0.000156054
0.000155921
0.000155797
0.000155688
0.000155603
0.000155553
0.000155552
0.000155615
0.00015576
0.000156
0.000156347
0.000156804
0.000157358
0.000157974
0.000158594
0.000159139
0.000159533
0.00015972
0.000159687
0.000159471
0.00015914
0.000158774
0.000158444
0.000158212
0.00015812
0.000158198
0.000158461
0.000158916
0.000159557
0.000160375
0.000161352
0.000162469
0.000163704
0.000165031
0.000166428
0.000167869
0.000169332
0.000170794
0.000172236
0.00017364
0.000174992
0.000176278
0.00017749
0.000178619
0.000179663
0.000180618
0.000181486
0.000182268
0.000182969
0.000183593
0.000184146
0.000184634
0.000185062
0.000185437
0.000185764
0.000186046
0.00018629
0.000186497
0.000186673
0.000186819
0.000186937
0.000187031
0.000187103
0.000187153
0.000187185
0.000187201
0.000187203
0.000187193
0.000187175
0.000187151
0.000187124
0.000187094
0.000187068
0.000187053
0.000159811
0.00015965
0.000159494
0.00015936
0.000159233
0.000159106
0.00015898
0.000158861
0.000158752
0.00015866
0.000158595
0.000158568
0.000158592
0.000158683
0.000158858
0.00015913
0.000159509
0.000159997
0.000160579
0.000161219
0.000161858
0.000162419
0.000162825
0.000163025
0.000163014
0.000162832
0.000162548
0.000162237
0.000161968
0.000161794
0.000161755
0.000161876
0.00016217
0.00016264
0.000163282
0.000164083
0.000165028
0.000166095
0.000167264
0.000168512
0.000169814
0.000171149
0.000172494
0.00017383
0.000175139
0.000176405
0.000177615
0.000178758
0.000179828
0.000180818
0.000181726
0.000182552
0.000183297
0.000183965
0.000184559
0.000185087
0.000185552
0.00018596
0.000186318
0.000186629
0.000186899
0.000187132
0.00018733
0.000187498
0.000187637
0.00018775
0.00018784
0.000187907
0.000187954
0.000187983
0.000187996
0.000187996
0.000187985
0.000187966
0.000187941
0.000187913
0.000187883
0.000187857
0.000187842
0.000162582
0.000162438
0.000162297
0.000162175
0.000162058
0.000161941
0.000161823
0.00016171
0.000161604
0.00016151
0.000161437
0.000161392
0.000161389
0.00016144
0.000161561
0.000161767
0.000162073
0.000162487
0.000163006
0.000163615
0.000164275
0.000164925
0.000165489
0.000165894
0.000166095
0.000166097
0.000165945
0.000165709
0.000165459
0.000165258
0.000165152
0.000165177
0.000165351
0.000165687
0.000166183
0.000166834
0.000167628
0.000168546
0.000169571
0.00017068
0.000171852
0.000173065
0.000174299
0.000175532
0.000176747
0.000177929
0.000179063
0.000180139
0.000181148
0.000182084
0.000182944
0.000183728
0.000184435
0.000185069
0.000185634
0.000186135
0.000186577
0.000186965
0.000187305
0.000187601
0.000187858
0.00018808
0.000188269
0.000188428
0.000188561
0.000188668
0.000188753
0.000188816
0.00018886
0.000188886
0.000188897
0.000188895
0.000188882
0.000188862
0.000188836
0.000188808
0.000188778
0.000188752
0.000188738
0.000165167
0.000165037
0.00016491
0.000164801
0.000164696
0.000164589
0.000164482
0.000164377
0.000164277
0.000164186
0.000164109
0.000164056
0.000164034
0.000164056
0.000164137
0.00016429
0.000164531
0.000164872
0.00016532
0.00016587
0.000166503
0.000167177
0.000167829
0.000168384
0.000168776
0.000168971
0.000168982
0.000168861
0.000168677
0.000168494
0.000168367
0.000168337
0.000168431
0.000168666
0.000169049
0.000169576
0.000170242
0.00017103
0.000171927
0.000172911
0.000173964
0.000175064
0.000176192
0.000177327
0.000178452
0.000179552
0.000180612
0.000181622
0.000182571
0.000183454
0.000184267
0.000185008
0.000185678
0.000186278
0.000186814
0.000187288
0.000187706
0.000188074
0.000188396
0.000188677
0.000188921
0.000189131
0.00018931
0.000189462
0.000189587
0.000189689
0.000189769
0.000189828
0.000189868
0.000189892
0.0001899
0.000189897
0.000189883
0.000189862
0.000189835
0.000189807
0.000189777
0.000189751
0.000189738
0.000167589
0.000167472
0.000167359
0.000167263
0.000167171
0.000167076
0.00016698
0.000166884
0.000166791
0.000166704
0.000166629
0.00016657
0.000166538
0.00016654
0.00016659
0.000166702
0.000166889
0.000167166
0.000167543
0.000168024
0.000168603
0.000169256
0.000169937
0.000170583
0.000171121
0.000171493
0.000171679
0.000171702
0.000171618
0.000171492
0.000171383
0.000171336
0.000171387
0.000171555
0.000171854
0.000172286
0.000172847
0.000173527
0.000174312
0.000175187
0.000176132
0.000177129
0.000178159
0.000179203
0.000180243
0.000181265
0.000182254
0.000183199
0.000184091
0.000184922
0.000185688
0.000186388
0.00018702
0.000187587
0.000188093
0.000188541
0.000188936
0.000189283
0.000189587
0.000189853
0.000190083
0.000190282
0.000190452
0.000190595
0.000190714
0.00019081
0.000190885
0.000190941
0.000190978
0.000190999
0.000191005
0.000191
0.000190985
0.000190963
0.000190936
0.000190907
0.000190878
0.000190853
0.00019084
0.000169874
0.000169768
0.000169667
0.000169583
0.000169502
0.000169419
0.000169334
0.000169248
0.000169163
0.000169082
0.000169009
0.000168949
0.00016891
0.000168899
0.000168927
0.000169007
0.000169151
0.000169373
0.000169686
0.0001701
0.000170615
0.00017122
0.000171888
0.000172572
0.000173205
0.000173721
0.000174073
0.000174252
0.000174295
0.000174257
0.000174198
0.000174169
0.000174208
0.00017434
0.000174584
0.000174946
0.000175426
0.000176018
0.000176711
0.000177491
0.000178342
0.000179247
0.000180188
0.000181147
0.000182109
0.000183057
0.000183979
0.000184863
0.000185698
0.000186479
0.000187201
0.000187859
0.000188456
0.00018899
0.000189467
0.000189889
0.000190261
0.000190588
0.000190875
0.000191125
0.000191342
0.00019153
0.00019169
0.000191826
0.000191938
0.000192029
0.000192099
0.000192151
0.000192185
0.000192203
0.000192208
0.000192201
0.000192184
0.000192162
0.000192135
0.000192106
0.000192077
0.000192052
0.000192041
0.00017207
0.000171971
0.000171878
0.000171801
0.000171728
0.000171652
0.000171573
0.000171493
0.000171412
0.000171333
0.00017126
0.000171196
0.000171149
0.000171126
0.000171135
0.000171187
0.000171295
0.00017147
0.000171727
0.000172077
0.000172525
0.000173071
0.000173699
0.00017438
0.000175061
0.000175679
0.000176175
0.000176513
0.0001767
0.000176777
0.000176801
0.000176821
0.000176879
0.000177006
0.000177222
0.00017754
0.000177962
0.000178486
0.000179105
0.000179807
0.000180577
0.000181402
0.000182264
0.000183148
0.000184037
0.000184918
0.000185778
0.000186603
0.000187387
0.00018812
0.000188798
0.000189418
0.000189979
0.000190483
0.000190931
0.000191328
0.000191678
0.000191986
0.000192255
0.00019249
0.000192695
0.000192872
0.000193023
0.000193151
0.000193257
0.000193342
0.000193408
0.000193456
0.000193487
0.000193503
0.000193506
0.000193498
0.000193481
0.000193457
0.00019343
0.000193401
0.000193373
0.000193349
0.000193338
0.000174183
0.000174091
0.000174004
0.000173933
0.000173864
0.000173792
0.000173717
0.000173639
0.00017356
0.000173481
0.000173405
0.000173336
0.000173281
0.000173246
0.000173238
0.000173268
0.000173347
0.000173485
0.000173696
0.000173992
0.000174382
0.000174871
0.000175452
0.000176107
0.000176801
0.000177481
0.000178085
0.000178562
0.000178894
0.0001791
0.000179224
0.000179317
0.000179419
0.000179566
0.000179779
0.000180075
0.00018046
0.000180935
0.000181496
0.000182134
0.000182838
0.000183593
0.000184386
0.000185202
0.000186026
0.000186845
0.000187646
0.000188417
0.000189151
0.000189838
0.000190475
0.000191058
0.000191586
0.000192059
0.00019248
0.000192853
0.000193181
0.00019347
0.000193722
0.000193943
0.000194135
0.000194301
0.000194444
0.000194564
0.000194664
0.000194744
0.000194806
0.00019485
0.000194879
0.000194893
0.000194894
0.000194884
0.000194867
0.000194843
0.000194816
0.000194788
0.00019476
0.000194737
0.000194727
0.000176216
0.00017613
0.000176048
0.00017598
0.000175914
0.000175845
0.000175771
0.000175693
0.000175612
0.00017553
0.000175449
0.000175374
0.000175308
0.00017526
0.000175237
0.000175246
0.0001753
0.000175408
0.000175583
0.000175836
0.000176178
0.000176617
0.000177153
0.000177778
0.000178466
0.000179178
0.000179859
0.000180453
0.00018092
0.000181258
0.000181495
0.000181676
0.000181843
0.000182029
0.00018226
0.000182554
0.000182921
0.000183365
0.000183885
0.000184473
0.000185121
0.000185818
0.000186551
0.000187306
0.000188071
0.000188833
0.00018958
0.000190301
0.000190987
0.000191632
0.000192229
0.000192777
0.000193272
0.000193716
0.000194111
0.00019446
0.000194767
0.000195037
0.000195273
0.000195479
0.000195659
0.000195815
0.000195948
0.000196062
0.000196155
0.000196231
0.000196289
0.00019633
0.000196356
0.000196368
0.000196368
0.000196358
0.000196339
0.000196316
0.000196289
0.000196261
0.000196234
0.000196212
0.000196203
0.000178202
0.00017812
0.00017804
0.000177973
0.000177906
0.000177835
0.000177759
0.000177677
0.000177591
0.000177502
0.000177412
0.000177326
0.000177247
0.000177183
0.000177141
0.000177129
0.000177157
0.000177237
0.000177379
0.000177595
0.000177896
0.000178291
0.000178785
0.000179375
0.000180047
0.000180772
0.000181505
0.000182192
0.000182783
0.000183254
0.000183615
0.0001839
0.000184149
0.000184394
0.000184663
0.000184975
0.000185342
0.000185771
0.000186264
0.000186816
0.000187421
0.00018807
0.000188752
0.000189455
0.000190168
0.000190879
0.000191576
0.00019225
0.000192893
0.000193497
0.000194057
0.00019457
0.000195035
0.000195451
0.00019582
0.000196147
0.000196434
0.000196685
0.000196905
0.000197098
0.000197266
0.000197411
0.000197536
0.000197643
0.000197731
0.000197801
0.000197855
0.000197894
0.000197917
0.000197928
0.000197926
0.000197915
0.000197897
0.000197873
0.000197847
0.000197819
0.000197793
0.000197772
0.000197764
0.000180167
0.000180087
0.000180007
0.000179936
0.000179864
0.000179787
0.000179703
0.000179613
0.000179517
0.000179417
0.000179315
0.000179215
0.00017912
0.000179037