/*--------------------------------*- C++ -*----------------------------------*\
  =========                 |
  \\      /  F ield         | OpenFOAM: The Open Source CFD Toolbox
   \\    /   O peration     | Website:  https://openfoam.org
    \\  /    A nd           | Version:  7
     \\/     M anipulation  |
\*---------------------------------------------------------------------------*/
FoamFile
{
    version     2.0;
    format      ascii;
    class       surfaceScalarField;
    location    "20000";
    object      phi;
}
// * * * * * * * * * * * * * * * * * * * * * * * * * * * * * * * * * * * * * //

dimensions      [0 3 -1 0 0 0 0];

internalField   nonuniform List<scalar> 
21744
(
-6.63288e-08
3.50827e-06
-5.43903e-08
7.744e-06
7.69701e-08
1.08043e-05
3.22401e-07
1.36393e-05
6.46649e-07
1.64091e-05
1.00702e-06
1.91367e-05
1.37033e-06
2.18309e-05
1.71826e-06
2.45144e-05
2.04426e-06
2.72203e-05
2.34839e-06
2.99833e-05
2.6334e-06
3.2834e-05
2.90258e-06
3.57964e-05
3.15873e-06
3.88891e-05
3.40379e-06
4.21251e-05
3.63878e-06
4.55131e-05
3.86378e-06
4.90583e-05
4.07814e-06
5.2762e-05
4.28052e-06
5.66225e-05
4.46915e-06
6.0635e-05
4.64193e-06
6.47912e-05
4.79663e-06
6.90801e-05
4.9311e-06
7.34872e-05
5.04338e-06
7.79948e-05
5.13186e-06
8.25821e-05
5.1954e-06
8.72248e-05
5.2334e-06
9.18954e-05
5.24588e-06
9.65632e-05
5.23344e-06
0.000101194
5.19724e-06
0.000105751
5.13894e-06
0.000110194
5.06063e-06
0.000114481
4.96464e-06
0.000118565
4.85346e-06
0.000122399
4.72958e-06
0.000125935
4.59539e-06
0.000129125
4.45305e-06
0.000131919
4.30444e-06
0.000134271
4.15112e-06
0.00013614
3.99434e-06
0.000137488
3.83509e-06
0.000138286
3.67413e-06
0.000138513
3.51206e-06
0.000138157
3.3494e-06
0.000137218
3.18661e-06
0.000135705
3.02414e-06
0.00013364
2.86243e-06
0.000131051
2.70189e-06
0.000127975
2.54292e-06
0.000124456
2.38585e-06
0.00012054
2.23096e-06
0.000116279
2.07848e-06
0.000111725
1.92855e-06
0.000106931
1.78128e-06
0.00010195
1.63676e-06
9.68357e-05
1.49509e-06
9.16395e-05
1.35646e-06
8.64118e-05
1.22112e-06
8.12005e-05
1.08944e-06
7.60495e-05
9.61928e-07
7.0998e-05
8.39163e-07
6.60791e-05
7.21818e-07
6.13192e-05
6.10625e-07
5.67379e-05
5.06348e-07
5.2348e-05
4.09763e-07
4.81566e-05
3.21636e-07
4.41651e-05
2.42694e-07
4.03712e-05
1.73589e-07
3.6769e-05
1.14837e-07
3.33501e-05
6.67456e-08
3.01048e-05
2.93303e-08
2.70228e-05
2.24416e-09
2.40933e-05
-1.52638e-08
2.13054e-05
-2.43672e-08
1.86472e-05
-2.66014e-08
1.61036e-05
-2.3742e-08
1.36523e-05
-1.76813e-08
1.12543e-05
-1.03367e-08
8.83056e-06
-3.62172e-09
6.17174e-06
2.56366e-06
-1.19875e-07
3.62815e-06
-2.23051e-07
7.84717e-06
-2.45945e-07
1.08272e-05
-1.73005e-07
1.35663e-05
-1.71684e-08
1.62533e-05
1.94314e-07
1.89252e-05
4.33875e-07
2.15914e-05
6.81879e-07
2.42664e-05
9.27874e-07
2.69743e-05
1.16809e-06
2.97431e-05
1.40248e-06
3.25996e-05
1.63254e-06
3.55664e-05
1.86004e-06
3.86616e-05
2.08637e-06
4.18987e-05
2.31219e-06
4.52873e-05
2.53737e-06
4.88331e-05
2.76095e-06
5.25384e-05
2.98123e-06
5.64023e-05
3.19589e-06
6.04203e-05
3.40214e-06
6.4585e-05
3.59694e-06
6.88853e-05
3.77717e-06
7.3307e-05
3.93984e-06
7.78322e-05
4.08225e-06
8.24397e-05
4.20217e-06
8.71048e-05
4.29797e-06
9.17996e-05
4.36865e-06
9.64925e-05
4.41393e-06
0.000101149
4.43419e-06
0.000105731
4.43047e-06
0.000110198
4.40431e-06
0.000114507
4.35769e-06
0.000118611
4.29286e-06
0.000122464
4.21218e-06
0.000126016
4.11802e-06
0.000129219
4.01259e-06
0.000132024
3.89789e-06
0.000134386
3.77567e-06
0.000136262
3.64736e-06
0.000137617
3.51415e-06
0.000138419
3.37701e-06
0.00013865
3.23674e-06
0.000138297
3.09404e-06
0.00013736
2.94954e-06
0.00013585
2.80385e-06
0.000133786
2.65755e-06
0.000131198
2.51117e-06
0.000128122
2.36523e-06
0.000124602
2.22017e-06
0.000120685
2.07637e-06
0.000116423
1.93413e-06
0.000111867
1.79368e-06
0.000107071
1.6552e-06
0.000102089
1.51885e-06
9.69721e-05
1.38478e-06
9.17736e-05
1.25324e-06
8.65434e-05
1.12453e-06
8.13292e-05
9.99099e-07
7.61749e-05
8.77473e-07
7.11197e-05
7.60298e-07
6.61963e-05
6.48296e-07
6.14312e-05
5.42251e-07
5.6844e-05
4.42977e-07
5.24473e-05
3.513e-07
4.82482e-05
2.68033e-07
4.42484e-05
1.93942e-07
4.04453e-05
1.29707e-07
3.68332e-05
7.58544e-08
3.34039e-05
3.26784e-08
3.0148e-05
1.66873e-10
2.70553e-05
-2.20746e-08
2.41155e-05
-3.4889e-08
2.13182e-05
-3.9566e-08
1.86519e-05
-3.77512e-08
1.61018e-05
-3.13235e-08
1.36458e-05
-2.22684e-08
1.12452e-05
-1.25879e-08
8.82088e-06
-4.2725e-09
6.16342e-06
2.55939e-06
-2.1729e-07
3.84544e-06
-4.57946e-07
8.08783e-06
-6.39661e-07
1.10089e-05
-7.38036e-07
1.36647e-05
-7.51733e-07
1.6267e-05
-6.95072e-07
1.88686e-05
-5.88e-07
2.14843e-05
-4.48136e-07
2.41265e-05
-2.8751e-07
2.68137e-05
-1.12801e-07
2.95684e-05
7.29774e-08
3.24138e-05
2.68825e-07
3.53705e-05
4.74571e-07
3.84558e-05
6.90128e-07
4.16832e-05
9.15057e-07
4.50624e-05
1.14834e-06
4.85998e-05
1.38826e-06
5.22985e-05
1.63246e-06
5.61581e-05
1.87794e-06
6.01748e-05
2.12126e-06
6.43417e-05
2.35864e-06
6.8648e-05
2.58618e-06
7.30794e-05
2.80006e-06
7.76183e-05
2.99671e-06
8.2243e-05
3.17302e-06
8.69285e-05
3.32647e-06
9.16461e-05
3.45521e-06
9.63638e-05
3.55818e-06
0.000101046
3.63505e-06
0.000105654
3.68624e-06
0.000110147
3.7128e-06
0.00011448
3.71633e-06
0.000118608
3.6988e-06
0.000122481
3.66243e-06
0.000126052
3.60951e-06
0.000129272
3.54229e-06
0.000132091
3.46287e-06
0.000134465
3.37311e-06
0.000136352
3.27464e-06
0.000137715
3.16882e-06
0.000138525
3.05681e-06
0.000138762
2.93962e-06
0.000138414
2.81811e-06
0.000137482
2.69309e-06
0.000135975
2.56532e-06
0.000133914
2.43551e-06
0.000131327
2.30433e-06
0.000128253
2.17242e-06
0.000124734
2.04033e-06
0.000120817
1.90852e-06
0.000116555
1.77739e-06
0.000111998
1.64725e-06
0.000107201
1.51834e-06
0.000102218
1.39089e-06
9.70995e-05
1.26513e-06
9.18993e-05
1.14135e-06
8.66671e-05
1.01993e-06
8.14506e-05
9.01338e-07
7.62935e-05
7.86183e-07
7.12348e-05
6.75159e-07
6.63073e-05
5.69045e-07
6.15374e-05
4.68676e-07
5.69443e-05
3.74919e-07
5.25411e-05
2.88652e-07
4.83345e-05
2.10733e-07
4.43263e-05
1.41964e-07
4.05141e-05
8.30492e-08
3.68921e-05
3.45191e-08
3.34524e-05
-3.34367e-09
3.01858e-05
-3.05881e-08
2.70825e-05
-4.76781e-08
2.41326e-05
-5.55552e-08
2.13261e-05
-5.56162e-08
1.8652e-05
-4.96093e-08
1.60958e-05
-3.95015e-08
1.36357e-05
-2.73475e-08
1.12331e-05
-1.52034e-08
8.80873e-06
-5.13076e-09
6.15335e-06
2.55426e-06
-7.89236e-08
3.92436e-06
-2.25276e-07
8.23418e-06
-3.61326e-07
1.1145e-05
-4.48109e-07
1.37515e-05
-4.70616e-07
1.62895e-05
-4.30829e-07
1.88288e-05
-3.39781e-07
2.13932e-05
-2.10333e-07
2.3997e-05
-5.29345e-08
2.66563e-05
1.25502e-07
2.939e-05
3.21025e-07
3.22183e-05
5.31585e-07
3.516e-05
7.56085e-07
3.82313e-05
9.93707e-07
4.14456e-05
1.24343e-06
4.48127e-05
1.5038e-06
4.83395e-05
1.77281e-06
5.20295e-05
2.04778e-06
5.58831e-05
2.32552e-06
5.98971e-05
2.60228e-06
6.40649e-05
2.874e-06
6.83762e-05
3.13645e-06
7.2817e-05
3.38536e-06
7.73694e-05
3.61671e-06
8.20117e-05
3.82686e-06
8.67184e-05
4.01272e-06
9.14603e-05
4.17188e-06
9.62046e-05
4.30272e-06
0.000100915
4.40438e-06
0.000105553
4.47682e-06
0.000110075
4.52072e-06
0.000114436
4.53737e-06
0.000118591
4.52853e-06
0.00012249
4.49632e-06
0.000126085
4.44303e-06
0.000129325
4.37097e-06
0.000132163
4.28241e-06
0.000134554
4.17945e-06
0.000136455
4.06399e-06
0.00013783
3.93772e-06
0.000138651
3.80219e-06
0.000138897
3.65876e-06
0.000138558
3.50872e-06
0.000137632
3.35328e-06
0.00013613
3.19358e-06
0.000134073
3.03074e-06
0.00013149
2.86578e-06
0.000128418
2.69968e-06
0.0001249
2.5333e-06
0.000120984
2.36739e-06
0.000116721
2.20257e-06
0.000112163
2.0394e-06
0.000107365
1.8783e-06
0.000102379
1.71968e-06
9.72581e-05
1.56391e-06
9.20551e-05
1.41143e-06
8.68196e-05
1.26273e-06
8.15993e-05
1.11838e-06
7.64379e-05
9.79042e-07
7.13741e-05
8.45471e-07
6.64409e-05
7.18465e-07
6.16644e-05
5.98868e-07
5.70639e-05
4.8753e-07
5.26524e-05
3.85302e-07
4.84367e-05
2.93004e-07
4.44186e-05
2.11398e-07
4.05957e-05
1.41118e-07
3.69624e-05
8.26331e-08
3.35109e-05
3.61464e-08
3.02323e-05
1.5021e-09
2.71172e-05
-2.19009e-08
2.4156e-05
-3.51456e-08
2.13394e-05
-3.97663e-08
1.86566e-05
-3.76414e-08
1.60937e-05
-3.08454e-08
1.36289e-05
-2.1517e-08
1.12238e-05
-1.17917e-08
8.79901e-06
-3.81734e-09
6.14537e-06
2.55044e-06
1.6089e-07
3.76347e-06
2.78137e-07
8.11694e-06
3.6734e-07
1.10558e-05
4.66741e-07
1.36521e-05
5.97931e-07
1.61583e-05
7.67862e-07
1.86589e-05
9.73429e-07
2.11877e-05
1.20717e-06
2.37633e-05
1.4615e-06
2.64019e-05
1.73066e-06
2.91208e-05
2.01103e-06
3.19379e-05
2.30052e-06
3.48705e-05
2.598e-06
3.79339e-05
2.90261e-06
4.11409e-05
3.21345e-06
4.45018e-05
3.52926e-06
4.80236e-05
3.84828e-06
5.17105e-05
4.16818e-06
5.55632e-05
4.48605e-06
5.95792e-05
4.79848e-06
6.37525e-05
5.1016e-06
6.80731e-05
5.39132e-06
7.25273e-05
5.66344e-06
7.70973e-05
5.91388e-06
8.17612e-05
6.13885e-06
8.64934e-05
6.33504e-06
9.12641e-05
6.49977e-06
9.60399e-05
6.6311e-06
0.000100784
6.72786e-06
0.000105456
6.78973e-06
0.000110013
6.81713e-06
0.000114409
6.81115e-06
0.000118597
6.77348e-06
0.000122528
6.7062e-06
0.000126152
6.61167e-06
0.00012942
6.49238e-06
0.000132283
6.35084e-06
0.000134695
6.18949e-06
0.000136616
6.01065e-06
0.000138009
5.81652e-06
0.000138846
5.60916e-06
0.000139105
5.39055e-06
0.000138776
5.16259e-06
0.00013786
4.92714e-06
0.000136366
4.68599e-06
0.000134314
4.44087e-06
0.000131735
4.19343e-06
0.000128665
3.94518e-06
0.000125148
3.6975e-06
0.000121232
3.45161e-06
0.000116967
3.20854e-06
0.000112406
2.9692e-06
0.000107604
2.73434e-06
0.000102614
2.50464e-06
9.74878e-05
2.28073e-06
9.2279e-05
2.06324e-06
8.70371e-05
1.85283e-06
8.18097e-05
1.65022e-06
7.66405e-05
1.45614e-06
7.15682e-05
1.27139e-06
6.66256e-05
1.09676e-06
6.1839e-05
9.33053e-07
5.72276e-05
7.81042e-07
5.28044e-05
6.41475e-07
4.85763e-05
5.15061e-07
4.4545e-05
4.02425e-07
4.07083e-05
3.04079e-07
3.70607e-05
2.2035e-07
3.35947e-05
1.51287e-07
3.03014e-05
9.6559e-08
2.71719e-05
5.53788e-08
2.41972e-05
2.64664e-08
2.13683e-05
8.10591e-09
1.86749e-05
-1.74674e-09
1.61035e-05
-5.30795e-09
1.36325e-05
-4.8401e-09
1.12233e-05
-2.54088e-09
8.79671e-06
-4.99245e-10
6.14333e-06
2.54994e-06
3.13453e-07
3.45002e-06
6.95259e-07
7.73513e-06
1.05813e-06
1.06929e-05
1.41205e-06
1.32981e-05
1.77138e-06
1.5799e-05
2.14488e-06
1.82854e-05
2.53417e-06
2.07984e-05
2.93619e-06
2.33613e-05
3.34623e-06
2.59919e-05
3.76004e-06
2.8707e-05
4.17456e-06
3.15234e-05
4.58787e-06
3.44572e-05
4.99879e-06
3.75229e-05
5.40648e-06
4.07333e-05
5.8101e-06
4.40982e-05
6.20861e-06
4.76251e-05
6.60055e-06
5.13185e-05
6.98401e-06
5.51797e-05
7.35657e-06
5.92067e-05
7.71531e-06
6.33937e-05
8.05689e-06
6.77315e-05
8.37765e-06
7.22065e-05
8.67376e-06
7.68011e-05
8.94142e-06
8.14936e-05
9.17697e-06
8.62578e-05
9.37719e-06
9.10639e-05
9.53935e-06
9.58777e-05
9.6614e-06
0.000100662
9.74208e-06
0.000105375
9.78088e-06
0.000109974
9.7781e-06
0.000114412
9.73478e-06
0.00011864
9.65254e-06
0.00012261
9.53353e-06
0.000126271
9.38023e-06
0.000129573
9.19536e-06
0.000132468
8.98174e-06
0.000134909
8.74222e-06
0.000136856
8.47961e-06
0.000138272
8.19665e-06
0.000139128
7.89607e-06
0.000139405
7.58052e-06
0.000139092
7.25264e-06
0.000138188
6.91504e-06
0.000136703
6.57025e-06
0.000134659
6.22078e-06
0.000132085
5.86896e-06
0.000129017
5.51698e-06
0.0001255
5.16682e-06
0.000121582
4.82025e-06
0.000117313
4.47881e-06
0.000112748
4.14381e-06
0.000107939
3.81639e-06
0.000102941
3.49755e-06
9.78067e-05
3.1882e-06
9.25883e-05
2.88924e-06
8.73361e-05
2.60149e-06
8.20975e-05
2.32584e-06
7.69162e-05
2.06311e-06
7.18309e-05
1.81413e-06
6.68746e-05
1.57969e-06
6.20734e-05
1.36051e-06
5.74468e-05
1.15727e-06
5.30077e-05
9.70592e-07
4.8763e-05
8.01028e-07
4.47146e-05
6.49045e-07
4.08603e-05
5.14981e-07
3.71948e-05
3.98981e-07
3.37107e-05
3.00902e-07
3.03995e-05
2.2022e-07
2.72526e-05
1.55928e-07
2.42615e-05
1.06536e-07
2.14177e-05
7.01346e-08
1.87113e-05
4.4507e-08
1.61292e-05
2.7278e-08
1.36497e-05
1.60885e-08
1.12345e-05
8.72618e-09
8.80407e-06
3.33176e-09
6.14873e-06
2.55328e-06
5.30023e-07
2.92e-06
1.27383e-06
6.99132e-06
2.0289e-06
9.93784e-06
2.76559e-06
1.25615e-05
3.48005e-06
1.50845e-05
4.17569e-06
1.75897e-05
4.85543e-06
2.01186e-05
5.51971e-06
2.2697e-05
6.16733e-06
2.53443e-05
6.79671e-06
2.80776e-05
7.40663e-06
3.09135e-05
7.99643e-06
3.38674e-05
8.56587e-06
3.69535e-05
9.11487e-06
4.01843e-05
9.64334e-06
4.35697e-05
1.01509e-05
4.71176e-05
1.06369e-05
5.08325e-05
1.11001e-05
5.47165e-05
1.1539e-05
5.87678e-05
1.19514e-05
6.29814e-05
1.23347e-05
6.73482e-05
1.2686e-05
7.18552e-05
1.30021e-05
7.64851e-05
1.32797e-05
8.1216e-05
1.35155e-05
8.6022e-05
1.37066e-05
9.08728e-05
1.38504e-05
9.57339e-05
1.3945e-05
0.000100567
1.39892e-05
0.000105331
1.39824e-05
0.000109981
1.39249e-05
0.000114469
1.38179e-05
0.000118747
1.3663e-05
0.000122765
1.34625e-05
0.000126471
1.32191e-05
0.000129816
1.29359e-05
0.000132751
1.26161e-05
0.000135229
1.22631e-05
0.000137209
1.18802e-05
0.000138655
1.1471e-05
0.000139538
1.1039e-05
0.000139837
1.05877e-05
0.000139543
1.01206e-05
0.000138655
9.64136e-06
0.000137183
9.15341e-06
0.000135147
8.66019e-06
0.000132578
8.16497e-06
0.000129512
7.67079e-06
0.000125994
7.18042e-06
0.000122072
6.69632e-06
0.000117797
6.22063e-06
0.000113223
5.75525e-06
0.000108404
5.30176e-06
0.000103394
4.8616e-06
9.82468e-05
4.43603e-06
9.30139e-05
4.02623e-06
8.77459e-05
3.63331e-06
8.24904e-05
3.25828e-06
7.72912e-05
2.90209e-06
7.21871e-05
2.56562e-06
6.72111e-05
2.2496e-06
6.23895e-05
1.95466e-06
5.77417e-05
1.68134e-06
5.3281e-05
1.43006e-06
4.90142e-05
1.20117e-06
4.49435e-05
9.94913e-07
4.10666e-05
8.11389e-07
3.73783e-05
6.5051e-07
3.38715e-05
5.11896e-07
3.05381e-05
3.94769e-07
2.73697e-05
2.97886e-07
2.43584e-05
2.19524e-07
2.1496e-05
1.57552e-07
1.87733e-05
1.09546e-07
1.61772e-05
7.29735e-08
1.36863e-05
4.53684e-08
1.12621e-05
2.45145e-08
8.82492e-06
8.7545e-09
6.16449e-06
2.56203e-06
7.20953e-07
2.19904e-06
1.86593e-06
5.84634e-06
3.10725e-06
8.69652e-06
4.35293e-06
1.13158e-05
5.56108e-06
1.38764e-05
6.71489e-06
1.64359e-05
7.80986e-06
1.90237e-05
8.84643e-06
2.16604e-05
9.82659e-06
2.43641e-05
1.07526e-05
2.71516e-05
1.16269e-05
3.00392e-05
1.24516e-05
3.30426e-05
1.3229e-05
3.61761e-05
1.39609e-05
3.94524e-05
1.46489e-05
4.28817e-05
1.52941e-05
4.64723e-05
1.58973e-05
5.02294e-05
1.64586e-05
5.41552e-05
1.69774e-05
5.82489e-05
1.7453e-05
6.25058e-05
1.78837e-05
6.69175e-05
1.82675e-05
7.14714e-05
1.86021e-05
7.61504e-05
1.8885e-05
8.09332e-05
1.91134e-05
8.57936e-05
1.92849e-05
9.07013e-05
1.93973e-05
9.56215e-05
1.94489e-05
0.000100516
1.94385e-05
0.000105341
1.93659e-05
0.000110053
1.92315e-05
0.000114604
1.90364e-05
0.000118942
1.87826e-05
0.000123019
1.84726e-05
0.000126782
1.81094e-05
0.000130179
1.76966e-05
0.000133164
1.72379e-05
0.000135688
1.67373e-05
0.00013771
1.6199e-05
0.000139193
1.56273e-05
0.000140109
1.50267e-05
0.000140438
1.44018e-05
0.000140168
1.37572e-05
0.000139299
1.30977e-05
0.000137842
1.24278e-05
0.000135817
1.17523e-05
0.000133254
1.10753e-05
0.000130189
1.04012e-05
0.000126668
9.73344e-06
0.00012274
9.0755e-06
0.000118455
8.43025e-06
0.000113869
7.80022e-06
0.000109034
7.18763e-06
0.000104007
6.59438e-06
9.88401e-05
6.02216e-06
9.35861e-05
5.47252e-06
8.82955e-05
4.94683e-06
8.30161e-05
4.44634e-06
7.77917e-05
3.97211e-06
7.26614e-05
3.52503e-06
6.76582e-05
3.1058e-06
6.28087e-05
2.71491e-06
5.81326e-05
2.35272e-06
5.36432e-05
2.01941e-06
4.93476e-05
1.71506e-06
4.52478e-05
1.43963e-06
4.1342e-05
1.19293e-06
3.7625e-05
9.74594e-07
3.40899e-05
7.83944e-07
3.07287e-05
6.19927e-07
2.75337e-05
4.81025e-07
2.44973e-05
3.65251e-07
2.16118e-05
2.70224e-07
1.88683e-05
1.93302e-07
1.62541e-05
1.31768e-07
1.37478e-05
8.30263e-08
1.13108e-05
4.48437e-08
8.86311e-06
1.57544e-08
6.19358e-06
2.57778e-06
7.9264e-07
1.4064e-06
2.24905e-06
4.38994e-06
3.96423e-06
6.98134e-06
5.77832e-06
9.50169e-06
7.5913e-06
1.20634e-05
9.34129e-06
1.46859e-05
1.09945e-05
1.73704e-05
1.25368e-05
2.01181e-05
1.39663e-05
2.29347e-05
1.52873e-05
2.58305e-05
1.65073e-05
2.88192e-05
1.76341e-05
3.19159e-05
1.86747e-05
3.51355e-05
1.96354e-05
3.84917e-05
2.05211e-05
4.19961e-05
2.13357e-05
4.56576e-05
2.20824e-05
4.94827e-05
2.27632e-05
5.34744e-05
2.33795e-05
5.76326e-05
2.39318e-05
6.19535e-05
2.44199e-05
6.64294e-05
2.48431e-05
7.10482e-05
2.52001e-05
7.57935e-05
2.54891e-05
8.06441e-05
2.57083e-05
8.55744e-05
2.58558e-05
9.05538e-05
2.59298e-05
9.55475e-05
2.5929e-05
0.000100516
2.58527e-05
0.000105418
2.57006e-05
0.000110205
2.54736e-05
0.000114831
2.51729e-05
0.000119243
2.48009e-05
0.000123391
2.43604e-05
0.000127222
2.38549e-05
0.000130685
2.32884e-05
0.00013373
2.26653e-05
0.000136311
2.19906e-05
0.000138384
2.12691e-05
0.000139915
2.05062e-05
0.000140872
1.97075e-05
0.000141237
1.88788e-05
0.000140997
1.80259e-05
0.000140152
1.7155e-05
0.000138713
1.62719e-05
0.0001367
1.53827e-05
0.000134143
1.4493e-05
0.000131079
1.3608e-05
0.000127553
1.27327e-05
0.000123615
1.18712e-05
0.000119317
1.10275e-05
0.000114712
1.02047e-05
0.000109857
9.40591e-06
0.000104806
8.63346e-06
9.96126e-05
7.88956e-06
9.433e-05
7.17616e-06
8.90089e-05
6.49495e-06
8.36973e-05
5.84742e-06
7.84392e-05
5.23476e-06
7.3274e-05
4.6579e-06
6.8235e-05
4.11746e-06
6.33491e-05
3.61382e-06
5.86363e-05
3.14708e-06
5.41099e-05
2.71717e-06
4.97775e-05
2.32386e-06
4.56412e-05
1.96677e-06
4.16991e-05
1.64541e-06
3.79464e-05
1.35905e-06
3.43762e-05
1.10672e-06
3.09811e-05
8.87056e-07
2.77534e-05
6.98236e-07
2.46861e-05
5.37994e-07
2.1772e-05
4.03681e-07
1.90026e-05
2.92407e-07
1.63654e-05
2.01247e-07
1.3839e-05
1.27462e-07
1.13846e-05
6.8772e-08
8.9218e-06
2.39506e-08
6.2384e-06
2.60173e-06
7.01578e-07
7.04826e-07
2.21228e-06
2.87923e-06
4.17317e-06
5.02046e-06
6.40697e-06
7.26789e-06
8.77252e-06
9.69785e-06
1.11539e-05
1.23046e-05
1.3463e-05
1.50613e-05
1.56412e-05
1.79399e-05
1.76572e-05
2.09187e-05
1.95011e-05
2.39866e-05
2.11773e-05
2.7143e-05
2.26975e-05
3.03956e-05
2.40761e-05
3.3757e-05
2.53264e-05
3.72414e-05
2.646e-05
4.08625e-05
2.74861e-05
4.46316e-05
2.84118e-05
4.85569e-05
2.92426e-05
5.26436e-05
2.99824e-05
5.68928e-05
3.0634e-05
6.1302e-05
3.11989e-05
6.58645e-05
3.1678e-05
7.05691e-05
3.20712e-05
7.54002e-05
3.23781e-05
8.03373e-05
3.25976e-05
8.53549e-05
3.27286e-05
9.04228e-05
3.277e-05
9.55061e-05
3.27211e-05
0.000100565
3.25813e-05
0.000105557
3.2351e-05
0.000110436
3.20311e-05
0.00011515
3.16234e-05
0.000119651
3.11305e-05
0.000123884
3.05558e-05
0.000127797
2.99032e-05
0.000131338
2.91774e-05
0.000134456
2.83835e-05
0.000137104
2.75273e-05
0.000139241
2.66146e-05
0.000140827
2.56519e-05
0.000141835
2.46459e-05
0.000142242
2.36037e-05
0.000142039
2.25325e-05
0.000141223
2.14397e-05
0.000139806
2.03328e-05
0.000137807
1.92191e-05
0.000135256
1.81056e-05
0.000132193
1.69988e-05
0.00012866
1.59048e-05
0.000124709
1.4829e-05
0.000120393
1.37762e-05
0.000115765
1.27504e-05
0.000110883
1.17552e-05
0.000105801
1.07937e-05
0.000100574
9.86864e-06
9.52551e-05
8.98236e-06
8.98952e-05
8.13689e-06
8.45427e-05
7.33394e-06
7.92422e-05
6.57487e-06
7.40331e-05
5.86064e-06
6.89493e-05
5.19184e-06
6.40179e-05
4.56868e-06
5.92594e-05
3.99105e-06
5.46875e-05
3.45861e-06
5.03099e-05
2.9708e-06
4.6129e-05
2.52693e-06
4.2143e-05
2.12616e-06
3.83471e-05
1.76746e-06
3.47349e-05
1.44951e-06
3.1299e-05
1.17064e-06
2.80323e-05
9.28729e-07
2.4928e-05
7.21226e-07
2.19795e-05
5.45188e-07
1.91787e-05
3.97469e-07
1.65131e-05
2.74903e-07
1.39616e-05
1.74587e-07
1.14849e-05
9.41875e-08
9.0022e-06
3.2697e-08
6.29989e-06
2.63443e-06
4.5882e-07
2.46006e-07
1.69105e-06
1.647e-06
3.48867e-06
3.22283e-06
5.73248e-06
5.02408e-06
8.30474e-06
7.12559e-06
1.10773e-05
9.53197e-06
1.39211e-05
1.22176e-05
1.67198e-05
1.51412e-05
1.93824e-05
1.82561e-05
2.18496e-05
2.15194e-05
2.40934e-05
2.48992e-05
2.61108e-05
2.83782e-05
2.79144e-05
3.19533e-05
2.95242e-05
3.56316e-05
3.09611e-05
3.94256e-05
3.22436e-05
4.33491e-05
3.33864e-05
4.74141e-05
3.44009e-05
5.16291e-05
3.52952e-05
5.59985e-05
3.60753e-05
6.05219e-05
3.67453e-05
6.51945e-05
3.73078e-05
7.00066e-05
3.77644e-05
7.49436e-05
3.8116e-05
7.99857e-05
3.83626e-05
8.51083e-05
3.8504e-05
9.02814e-05
3.85398e-05
9.54703e-05
3.84697e-05
0.000100635
3.8294e-05
0.000105733
3.80132e-05
0.000110716
3.76287e-05
0.000115535
3.71426e-05
0.000120137
3.6558e-05
0.000124468
3.58786e-05
0.000128476
3.5109e-05
0.000132107
3.42545e-05
0.00013531
3.33208e-05
0.000138038
3.23145e-05
0.000140247
3.12424e-05
0.000141899
3.0112e-05
0.000142965
2.8931e-05
0.000143424
2.77075e-05
0.000143262
2.64502e-05
0.000142481
2.51677e-05
0.000141088
2.38686e-05
0.000139106
2.25616e-05
0.000136563
2.1255e-05
0.000133499
1.99564e-05
0.000129959
1.86731e-05
0.000125992
1.74114e-05
0.000121654
1.61768e-05
0.000117
1.49744e-05
0.000112085
1.38083e-05
0.000106967
1.26821e-05
0.0001017
1.15991e-05
9.63381e-05
1.05619e-05
9.09324e-05
9.57291e-06
8.55317e-05
8.63405e-06
8.0181e-05
7.74682e-06
7.49203e-05
6.91225e-06
6.97838e-05
6.1309e-06
6.47993e-05
5.4029e-06
5.99874e-05
4.72796e-06
5.53625e-05
4.10552e-06
5.09323e-05
3.53479e-06
4.66997e-05
3.0148e-06
4.2663e-05
2.54443e-06
3.88175e-05
2.12236e-06
3.5157e-05
1.74701e-06
3.16744e-05
1.41644e-06
2.83629e-05
1.12825e-06
2.52162e-05
8.79616e-07
2.22282e-05
6.67334e-07
1.9391e-05
4.88004e-07
1.66924e-05
3.3826e-07
1.41113e-05
2.1503e-07
1.16082e-05
1.15936e-07
9.10129e-06
4.0145e-08
6.37568e-06
2.67458e-06
2.66661e-07
-2.06555e-08
1.13105e-06
7.8261e-07
2.5238e-06
1.83008e-06
4.41886e-06
3.12903e-06
6.77967e-06
4.76478e-06
9.53475e-06
6.77689e-06
1.25772e-05
9.17513e-06
1.57753e-05
1.1943e-05
1.89907e-05
1.50408e-05
2.20977e-05
1.84123e-05
2.50007e-05
2.19962e-05
2.76419e-05
2.57371e-05
3e-05
2.95952e-05
3.20823e-05
3.35494e-05
3.39119e-05
3.7596e-05
3.55178e-05
4.17432e-05
3.69275e-05
4.60044e-05
3.81637e-05
5.03929e-05
3.92436e-05
5.49186e-05
4.01795e-05
5.95861e-05
4.09798e-05
6.43941e-05
4.16505e-05
6.93359e-05
4.21952e-05
7.43988e-05
4.26164e-05
7.95645e-05
4.29154e-05
8.48093e-05
4.30931e-05
9.01038e-05
4.31497e-05
9.54136e-05
4.30859e-05
0.000100699
4.2902e-05
0.000105917
4.25993e-05
0.000111019
4.21796e-05
0.000115955
4.16452e-05
0.000120671
4.09997e-05
0.000125114
4.02471e-05
0.000129229
3.93927e-05
0.000132962
3.84422e-05
0.000136261
3.74021e-05
0.000139078
3.62797e-05
0.000141369
3.50826e-05
0.000143096
3.38191e-05
0.000144229
3.2498e-05
0.000144745
3.11284e-05
0.000144632
2.97201e-05
0.000143889
2.82826e-05
0.000142526
2.6826e-05
0.000140563
2.53599e-05
0.00013803
2.38937e-05
0.000134965
2.24362e-05
0.000131416
2.09956e-05
0.000127433
1.9579e-05
0.000123071
1.81929e-05
0.000118386
1.6843e-05
0.000113435
1.55339e-05
0.000108276
1.42697e-05
0.000102964
1.30542e-05
9.75536e-05
1.18903e-05
9.20963e-05
1.07806e-05
8.66414e-05
9.72736e-06
8.12343e-05
8.73212e-06
7.59156e-05
7.79603e-06
7.07199e-05
6.91965e-06
6.56756e-05
6.10306e-06
6.0804e-05
5.34588e-06
5.61197e-05
4.64738e-06
5.16308e-05
4.00658e-06
4.73405e-05
3.42232e-06
4.32472e-05
2.89324e-06
3.93466e-05
2.41783e-06
3.56324e-05
1.99426e-06
3.20979e-05
1.62036e-06
2.87368e-05
1.2935e-06
2.55431e-05
1.0106e-06
2.25111e-05
7.68214e-07
1.96333e-05
5.62724e-07
1.68979e-05
3.90543e-07
1.42835e-05
2.4846e-07
1.17502e-05
1.34006e-07
9.21574e-06
4.64327e-08
6.46325e-06
2.72101e-06
1.51423e-07
-1.72079e-07
7.15868e-07
2.18165e-07
1.68631e-06
8.59642e-07
3.09308e-06
1.72225e-06
4.97307e-06
2.88479e-06
7.33698e-06
4.41298e-06
1.01542e-05
6.35791e-06
1.33469e-05
8.75031e-06
1.67943e-05
1.15934e-05
2.03472e-05
1.48594e-05
2.38508e-05
1.84925e-05
2.71698e-05
2.24182e-05
3.02072e-05
2.65578e-05
3.29127e-05
3.08438e-05
3.52785e-05
3.52302e-05
3.73259e-05
3.96957e-05
3.9091e-05
4.42393e-05
4.06116e-05
4.88723e-05
4.1921e-05
5.36093e-05
4.30445e-05
5.84626e-05
4.40003e-05
6.34383e-05
4.48007e-05
6.85355e-05
4.54539e-05
7.37456e-05
4.59651e-05
7.90534e-05
4.63374e-05
8.44369e-05
4.6573e-05
8.98682e-05
4.66732e-05
9.53134e-05
4.66391e-05
0.000100733
4.64718e-05
0.000106084
4.61729e-05
0.000111318
4.57445e-05
0.000116383
4.51893e-05
0.000121226
4.45112e-05
0.000125792
4.37148e-05
0.000130025
4.28054e-05
0.000133871
4.17896e-05
0.000137277
4.06744e-05
0.000140193
3.94676e-05
0.000142576
3.81778e-05
0.000144386
3.68139e-05
0.000145593
3.53856e-05
0.000146173
3.3903e-05
0.000146114
3.23767e-05
0.000145415
3.08173e-05
0.000144085
2.92357e-05
0.000142144
2.76427e-05
0.000139623
2.60486e-05
0.00013656
2.44632e-05
0.000133002
2.28955e-05
0.000129001
2.13535e-05
0.000124613
1.98443e-05
0.000119895
1.83742e-05
0.000114905
1.69485e-05
0.000109702
1.55717e-05
0.000104341
1.42478e-05
9.88776e-05
1.29801e-05
9.3364e-05
1.17714e-05
8.78501e-05
1.0624e-05
8.23816e-05
9.53991e-06
7.69997e-05
8.52014e-06
7.17397e-05
7.56537e-06
6.66304e-05
6.67564e-06
6.16938e-05
5.85053e-06
5.69448e-05
5.08922e-06
5.23922e-05
4.39061e-06
4.80391e-05
3.75338e-06
4.38845e-05
3.17602e-06
3.99239e-05
2.65683e-06
3.61516e-05
2.19383e-06
3.25609e-05
1.78462e-06
2.9146e-05
1.42638e-06
2.59013e-05
1.11579e-06
2.28217e-05
8.49194e-07
1.98999e-05
6.22726e-07
1.71244e-05
4.32624e-07
1.44736e-05
2.75499e-07
1.19074e-05
1.48776e-07
9.34247e-06
5.16944e-08
6.56033e-06
2.7727e-06
8.80118e-08
-2.6009e-07
4.53642e-07
-1.47465e-07
1.1015e-06
2.11782e-07
2.07244e-06
7.51317e-07
3.43103e-06
1.5262e-06
5.2396e-06
2.60442e-06
7.53993e-06
4.05758e-06
1.03369e-05
5.95331e-06
1.35858e-05
8.34455e-06
1.71871e-05
1.12581e-05
2.09944e-05
1.46853e-05
2.4834e-05
1.85786e-05
2.85343e-05
2.28575e-05
3.19553e-05
2.74227e-05
3.50087e-05
3.21768e-05
3.76618e-05
3.70427e-05
3.99271e-05
4.1974e-05
4.18446e-05
4.69548e-05
4.34629e-05
5.19909e-05
4.48274e-05
5.7098e-05
4.59742e-05
6.22916e-05
4.69292e-05
6.75805e-05
4.77099e-05
7.2965e-05
4.83274e-05
7.84359e-05
4.87888e-05
8.39755e-05
4.90986e-05
8.95584e-05
4.92595e-05
9.51525e-05
4.92735e-05
0.000100719
4.91423e-05
0.000106215
4.88679e-05
0.000111592
4.84527e-05
0.000116798
4.78997e-05
0.000121779
4.7213e-05
0.000126479
4.63974e-05
0.000130841
4.54588e-05
0.000134809
4.44041e-05
0.000138332
4.32407e-05
0.000141357
4.19772e-05
0.00014384
4.06227e-05
0.000145741
3.91868e-05
0.000147029
3.768e-05
0.00014768
3.61132e-05
0.000147681
3.44976e-05
0.000147031
3.2845e-05
0.000145738
3.1167e-05
0.000143822
2.94751e-05
0.000141314
2.77808e-05
0.000138254
2.60944e-05
0.000134688
2.4426e-05
0.000130669
2.27841e-05
0.000126255
2.11767e-05
0.000121502
1.96105e-05
0.000116472
1.80912e-05
0.000111221
1.66238e-05
0.000105808
1.52124e-05
0.000100289
1.38609e-05
9.47156e-05
1.2572e-05
8.91389e-05
1.13485e-05
8.36052e-05
1.01922e-05
7.8156e-05
9.10434e-06
7.28275e-05
8.08573e-06
6.7649e-05
7.1364e-06
6.26431e-05
6.25591e-06
5.78253e-05
5.44341e-06
5.32047e-05
4.69772e-06
4.87848e-05
4.01743e-06
4.45647e-05
3.40093e-06
4.05404e-05
2.8464e-06
3.67061e-05
2.35168e-06
3.30557e-05
1.91423e-06
2.95834e-05
1.53102e-06
2.62845e-05
1.19853e-06
2.31542e-05
9.12864e-07
2.01856e-05
6.69969e-07
1.73673e-05
4.65865e-07
1.46777e-05
2.96995e-07
1.20762e-05
1.60655e-07
9.47881e-06
5.60285e-08
6.66496e-06
2.82873e-06
5.50892e-08
-3.15179e-07
3.00804e-07
-3.9318e-07
7.37626e-07
-2.2504e-07
1.39631e-06
9.26282e-08
2.33575e-06
5.86766e-07
3.62798e-06
1.31218e-06
5.34713e-06
2.33843e-06
7.55555e-06
3.74489e-06
1.02868e-05
5.61332e-06
1.35281e-05
8.01678e-06
1.72075e-05
1.10059e-05
2.11918e-05
1.45943e-05
2.53002e-05
1.87491e-05
2.93331e-05
2.33898e-05
3.31091e-05
2.84008e-05
3.64969e-05
3.36549e-05
3.94314e-05
3.90395e-05
4.19095e-05
4.44767e-05
4.39705e-05
4.99299e-05
4.5673e-05
5.53956e-05
4.70753e-05
6.08892e-05
4.82258e-05
6.643e-05
4.91599e-05
7.20309e-05
4.99014e-05
7.76944e-05
5.04653e-05
8.34115e-05
5.08611e-05
8.91627e-05
5.10944e-05
9.49192e-05
5.1169e-05
0.000100645
5.10876e-05
0.000106297
5.08526e-05
0.000111827
5.04667e-05
0.000117184
4.99333e-05
0.000122313
4.92564e-05
0.000127156
4.84412e-05
0.000131656
4.74937e-05
0.000135757
4.64211e-05
0.000139404
4.52314e-05
0.000142546
4.39334e-05
0.000145138
4.25368e-05
0.000147137
4.1052e-05
0.000148513
3.949e-05
0.000149242
3.78624e-05
0.000149309
3.61811e-05
0.000148712
3.44586e-05
0.00014746
3.27073e-05
0.000145574
3.09396e-05
0.000143082
2.91675e-05
0.000140026
2.74024e-05
0.000136453
2.56547e-05
0.000132417
2.3934e-05
0.000127975
2.22485e-05
0.000123188
2.06056e-05
0.000118115
1.90115e-05
0.000112815
1.74714e-05
0.000107349
1.59899e-05
0.00010177
1.45708e-05
9.61348e-05
1.32173e-05
9.04924e-05
1.1932e-05
8.48904e-05
1.07172e-05
7.93709e-05
9.57407e-06
7.39706e-05
8.5035e-06
6.87196e-05
7.50563e-06
6.3641e-05
6.58002e-06
5.87509e-05
5.72584e-06
5.40588e-05
4.94186e-06
4.95688e-05
4.22665e-06
4.528e-05
3.57851e-06
4.11886e-05
2.99553e-06
3.72891e-05
2.47544e-06
3.35758e-05
2.01554e-06
3.00433e-05
1.61263e-06
2.66874e-05
1.26297e-06
2.35038e-05
9.62476e-07
2.04861e-05
7.06858e-07
1.76229e-05
4.91947e-07
1.48926e-05
3.14005e-07
1.22542e-05
1.70183e-07
9.62263e-06
5.96022e-08
6.77554e-06
2.88833e-06
3.80907e-08
-3.5327e-07
2.12594e-07
-5.67682e-07
5.19416e-07
-5.31863e-07
9.76761e-07
-3.64716e-07
1.62724e-06
-6.37135e-08
2.53058e-06
4.08848e-07
3.75939e-06
1.10962e-06
5.39294e-06
2.11134e-06
7.50637e-06
3.49989e-06
1.01546e-05
5.36858e-06
1.33526e-05
7.80788e-06
1.70565e-05
1.08904e-05
2.11529e-05
1.46527e-05
2.54637e-05
1.9079e-05
2.97708e-05
2.40937e-05
3.38568e-05
2.95689e-05
3.75479e-05
3.53484e-05
4.07427e-05
4.1282e-05
4.34168e-05
4.72557e-05
4.56055e-05
5.3207e-05
4.73747e-05
5.912e-05
4.8796e-05
6.50086e-05
4.99308e-05
7.08961e-05
5.08247e-05
7.68005e-05
5.15086e-05
8.27277e-05
5.2002e-05
8.86692e-05
5.2317e-05
9.46042e-05
5.24609e-05
0.000100501
5.24383e-05
0.000106319
5.22528e-05
0.000112013
5.19077e-05
0.000117529
5.14064e-05
0.000122814
5.07532e-05
0.000127809
4.99533e-05
0.000132456
4.90128e-05
0.000136697
4.79392e-05
0.000140478
4.67406e-05
0.000143745
4.54263e-05
0.000146452
4.40064e-05
0.000148557
4.24917e-05
0.000150028
4.08938e-05
0.00015084
3.92248e-05
0.000150978
3.74974e-05
0.00015044
3.57246e-05
0.000149233
3.39194e-05
0.000147379
3.2095e-05
0.000144906
3.02641e-05
0.000141857
2.84386e-05
0.000138279
2.66298e-05
0.000134226
2.48476e-05
0.000129758
2.31011e-05
0.000124934
2.13979e-05