/*--------------------------------*- C++ -*----------------------------------*\
  =========                 |
  \\      /  F ield         | OpenFOAM: The Open Source CFD Toolbox
   \\    /   O peration     | Website:  https://openfoam.org
    \\  /    A nd           | Version:  7
     \\/     M anipulation  |
\*---------------------------------------------------------------------------*/
FoamFile
{
    version     2.0;
    format      ascii;
    class       volSymmTensorField;
    location    "0";
    object      R;
}
// * * * * * * * * * * * * * * * * * * * * * * * * * * * * * * * * * * * * * //

dimensions      [0 2 -2 0 0 0 0];

internalField   nonuniform List<symmTensor> 
10981
(
(2.56981e-06 -4.53715e-07 8.9958e-35 2.57358e-06 -0 2.57167e-06)
(1.50753e-05 -8.40826e-06 7.60339e-31 1.50507e-05 -0 1.50678e-05)
(1.87126e-05 -9.3841e-06 -0 1.83054e-05 -0 1.85153e-05)
(2.03869e-05 -9.76165e-06 -0 1.93675e-05 -0 1.98762e-05)
(2.13015e-05 -9.64278e-06 -0 1.95737e-05 -0 2.04372e-05)
(2.19413e-05 -9.12429e-06 -0 1.95367e-05 -0 2.07394e-05)
(2.25474e-05 -8.34267e-06 -0 1.95495e-05 -0 2.10485e-05)
(2.32071e-05 -7.4254e-06 -0 1.97057e-05 -0 2.1456e-05)
(2.3925e-05 -6.46843e-06 -0 1.99971e-05 -0 2.19601e-05)
(2.4676e-05 -5.52697e-06 -2.62132e-29 2.03813e-05 -0 2.25271e-05)
(2.54304e-05 -4.62216e-06 -0 2.08158e-05 -0 2.31212e-05)
(2.61631e-05 -3.76011e-06 -4.27054e-29 2.12686e-05 -0 2.37135e-05)
(2.68523e-05 -2.93761e-06 -0 2.1719e-05 -0 2.42831e-05)
(2.74794e-05 -2.15156e-06 -2.48754e-32 2.21559e-05 -0 2.4815e-05)
(2.80272e-05 -1.40244e-06 -1.57997e-28 2.25738e-05 -0 2.52976e-05)
(2.84806e-05 -6.90646e-07 -0 2.29709e-05 -0 2.57221e-05)
(2.88231e-05 -2.47549e-08 -0 2.33485e-05 -0 2.60824e-05)
(2.90444e-05 5.82681e-07 -0 2.37051e-05 -0 2.63714e-05)
(2.91358e-05 1.12549e-06 -5.96451e-28 2.40391e-05 -0 2.65839e-05)
(2.90903e-05 1.5916e-06 6.791e-28 2.43472e-05 -0 2.67158e-05)
(2.8908e-05 1.97033e-06 7.6501e-28 2.46219e-05 -0 2.67622e-05)
(2.85923e-05 2.2566e-06 -0 2.48537e-05 -0 2.67198e-05)
(2.81467e-05 2.44649e-06 -9.42084e-28 2.50334e-05 -0 2.65877e-05)
(2.75832e-05 2.53879e-06 1.0143e-32 2.51478e-05 -0 2.63633e-05)
(2.6913e-05 2.53941e-06 -2.2365e-27 2.51849e-05 -0 2.60473e-05)
(2.61517e-05 2.45635e-06 2.40639e-27 2.51325e-05 -0 2.564e-05)
(2.53105e-05 2.29955e-06 -2.56948e-27 2.49829e-05 -0 2.51459e-05)
(2.44102e-05 2.08377e-06 -0 2.47258e-05 -0 2.45664e-05)
(2.34595e-05 1.82416e-06 -2.86954e-27 2.43609e-05 -0 2.39094e-05)
(2.24746e-05 1.53922e-06 -0 2.38866e-05 -0 2.31802e-05)
(2.14681e-05 1.24597e-06 -0 2.33066e-05 -0 2.23865e-05)
(2.04484e-05 9.58713e-07 -0 2.26299e-05 -0 2.15381e-05)
(1.94249e-05 6.92815e-07 6.68971e-27 2.18673e-05 -0 2.06448e-05)
(1.84032e-05 4.61964e-07 -0 2.10341e-05 -0 1.97185e-05)
(1.73928e-05 2.73091e-07 7.03748e-27 2.0145e-05 -0 1.8769e-05)
(1.63984e-05 1.33972e-07 -0 1.92183e-05 -0 1.78086e-05)
(1.54278e-05 4.80659e-08 3.3459e-32 1.82707e-05 -0 1.68487e-05)
(1.44837e-05 1.4358e-08 -7.44435e-27 1.73209e-05 -0 1.59021e-05)
(1.35751e-05 3.17021e-08 -7.55366e-27 1.63836e-05 -0 1.49787e-05)
(1.27062e-05 9.29727e-08 -0 1.54738e-05 -0 1.40898e-05)
(1.18848e-05 1.9341e-07 7.74488e-27 1.46026e-05 -0 1.32436e-05)
(1.11164e-05 3.2706e-07 -0 1.37792e-05 -0 1.2448e-05)
(1.04069e-05 4.86443e-07 -7.90476e-27 1.30098e-05 -0 1.17083e-05)
(9.75968e-06 6.65161e-07 7.97202e-27 1.2299e-05 -0 1.10293e-05)
(9.1788e-06 8.56166e-07 -8.02849e-27 1.1648e-05 -0 1.04128e-05)
(8.66377e-06 1.05525e-06 -0 1.10581e-05 -0 9.86077e-06)
(8.21711e-06 1.26043e-06 8.09741e-27 1.0527e-05 -0 9.3717e-06)
(7.83677e-06 1.46604e-06 -0 1.00535e-05 -0 8.9447e-06)
(7.52101e-06 1.67037e-06 -0 9.63603e-06 -0 8.57796e-06)
(7.26607e-06 1.8719e-06 -0 9.27299e-06 -0 8.26933e-06)
(7.0696e-06 2.0664e-06 3.98541e-27 8.9628e-06 -0 8.016e-06)
(6.92674e-06 2.25158e-06 -0 8.70452e-06 -0 7.81554e-06)
(6.83325e-06 2.42635e-06 -3.87908e-27 8.49689e-06 -0 7.66506e-06)
(6.78449e-06 2.58822e-06 -0 8.33804e-06 -0 7.56126e-06)
(6.77529e-06 2.7343e-06 3.73856e-27 8.22484e-06 -0 7.50008e-06)
(6.80061e-06 2.86336e-06 -3.66171e-27 8.15269e-06 -0 7.47651e-06)
(6.85425e-06 2.97557e-06 -1.79154e-27 8.11632e-06 -0 7.48543e-06)
(6.93206e-06 3.07167e-06 1.11337e-32 8.10839e-06 -0 7.52014e-06)
(7.02802e-06 3.1526e-06 -0 8.1227e-06 -0 7.57528e-06)
(7.13843e-06 3.2211e-06 -0 8.15278e-06 -0 7.6454e-06)
(7.25967e-06 3.28137e-06 -1.62608e-27 8.19409e-06 -0 7.72683e-06)
(7.39068e-06 3.33758e-06 -0 8.24325e-06 -0 7.81687e-06)
(7.53072e-06 3.39417e-06 -0 8.29962e-06 -0 7.91525e-06)
(7.68144e-06 3.4567e-06 -0 8.36377e-06 -0 8.02259e-06)
(7.84469e-06 3.53021e-06 7.10638e-28 8.43901e-06 -0 8.1419e-06)
(8.02391e-06 3.6184e-06 -0 8.52956e-06 -0 8.27674e-06)
(8.22252e-06 3.72461e-06 -0 8.64072e-06 -0 8.43156e-06)
(8.44376e-06 3.85183e-06 -3.85169e-33 8.77801e-06 -0 8.61082e-06)
(8.68949e-06 3.99981e-06 -0 8.94558e-06 -0 8.81754e-06)
(8.95917e-06 4.16655e-06 -0 9.14459e-06 -0 9.05184e-06)
(9.24727e-06 4.34785e-06 -2.59214e-28 9.37167e-06 -0 9.30947e-06)
(9.54128e-06 4.53644e-06 -1.21435e-28 9.61537e-06 -0 9.57835e-06)
(9.81834e-06 4.72146e-06 -0 9.85341e-06 -0 9.83585e-06)
(1.00398e-05 4.887e-06 1.05107e-28 1.00476e-05 -0 1.00437e-05)
(1.01423e-05 5.00985e-06 -0 1.01337e-05 -0 1.0138e-05)
(1.00098e-05 5.05329e-06 -0 9.99477e-06 -0 1.00022e-05)
(9.38979e-06 4.94838e-06 -0 9.37645e-06 -0 9.38296e-06)
(7.50861e-06 4.27842e-06 2.74435e-29 7.50182e-06 -0 7.50517e-06)
(1.0279e-06 1.41211e-07 7.20678e-31 1.02782e-06 -0 1.02786e-06)
(2.54907e-06 -4.55164e-07 -0 2.55583e-06 1.35656e-31 2.5524e-06)
(1.47214e-05 -8.30213e-06 -2.65734e-28 1.4894e-05 1.88941e-30 1.48167e-05)
(1.81847e-05 -9.17518e-06 -0 1.825e-05 -8.87767e-30 1.82285e-05)
(1.98136e-05 -9.55092e-06 -0 1.95206e-05 -0 1.96704e-05)
(2.07366e-05 -9.52395e-06 -5.48392e-30 1.99201e-05 -1.87473e-34 2.03318e-05)
(2.13716e-05 -9.1369e-06 -0 1.99906e-05 -0 2.06857e-05)
(2.19379e-05 -8.47278e-06 -0 2.00233e-05 -0 2.09856e-05)
(2.25374e-05 -7.63964e-06 -0 2.01437e-05 -0 2.13455e-05)
(2.31952e-05 -6.72905e-06 -0 2.03732e-05 -7.08031e-29 2.17892e-05)
(2.39015e-05 -5.80616e-06 1.71832e-26 2.06862e-05 6.79059e-29 2.22986e-05)
(2.4635e-05 -4.90762e-06 -0 2.10453e-05 -1.76874e-30 2.28445e-05)
(2.53732e-05 -4.04905e-06 2.2785e-26 2.14185e-05 1.77215e-28 2.33999e-05)
(2.60951e-05 -3.23557e-06 -2.20663e-28 2.17833e-05 1.37304e-28 2.39432e-05)
(2.67811e-05 -2.46792e-06 -2.69961e-28 2.21267e-05 -3.26408e-28 2.44576e-05)
(2.74109e-05 -1.74486e-06 5.95286e-26 2.24433e-05 8.12338e-28 2.49308e-05)
(2.79663e-05 -1.06948e-06 -0 2.27321e-05 3.94656e-28 2.53521e-05)
(2.84255e-05 -4.45834e-07 -0 2.2997e-05 -0 2.57146e-05)
(2.87738e-05 1.25369e-07 -0 2.32402e-05 -9.99415e-28 2.60102e-05)
(2.89957e-05 6.33998e-07 1.45134e-25 2.34645e-05 4.16477e-27 2.6233e-05)
(2.90796e-05 1.07312e-06 -1.48645e-25 2.36707e-05 -1.16605e-27 2.63781e-05)
(2.90199e-05 1.43977e-06 -1.51158e-25 2.38558e-05 -4.94527e-27 2.64406e-05)
(2.88141e-05 1.72308e-06 -3.39686e-27 2.40148e-05 -2.54657e-27 2.64173e-05)
(2.84657e-05 1.92353e-06 1.53453e-25 2.41389e-05 4.31671e-27 2.63052e-05)
(2.79819e-05 2.03901e-06 4.07771e-27 2.42175e-05 -1.46353e-27 2.61028e-05)
(2.73747e-05 2.0719e-06 3.00793e-25 2.42382e-05 1.22919e-26 2.58093e-05)
(2.66566e-05 2.02961e-06 -3.02396e-25 2.41894e-05 -9.69564e-27 2.54264e-05)
(2.58448e-05 1.91888e-06 2.985e-25 2.4059e-05 6.74366e-27 2.49556e-05)
(2.49552e-05 1.75231e-06 1.06871e-26 2.38381e-05 -1.14006e-28 2.44006e-05)
(2.40046e-05 1.54226e-06 2.88102e-25 2.35203e-05 9.61975e-27 2.37664e-05)
(2.30102e-05 1.30438e-06 -0 2.31014e-05 3.07711e-27 2.30588e-05)
(2.19839e-05 1.05409e-06 -1.22379e-26 2.25837e-05 -4.18366e-31 2.22866e-05)
(2.09371e-05 8.06024e-07 -0 2.19731e-05 6.53323e-27 2.14588e-05)
(1.98848e-05 5.73223e-07 -5.2245e-25 2.12763e-05 -1.71022e-26 2.05833e-05)
(1.88339e-05 3.6964e-07 -0 2.05063e-05 3.59135e-28 1.96722e-05)
(1.77906e-05 2.04794e-07 -4.93967e-25 1.96787e-05 -1.55426e-26 1.87377e-05)
(1.67662e-05 8.3836e-08 -0 1.88077e-05 -6.30409e-27 1.77894e-05)
(1.57647e-05 1.15874e-08 -1.42981e-26 1.79119e-05 -6.78452e-27 1.68406e-05)
(1.47939e-05 -1.20302e-08 4.39647e-25 1.70072e-05 6.26214e-27 1.59023e-05)
(1.38599e-05 1.12473e-08 4.42256e-25 1.61098e-05 1.87508e-26 1.49859e-05)
(1.29672e-05 7.74798e-08 -1.49377e-26 1.52349e-05 1.35017e-26 1.41027e-05)
(1.21249e-05 1.82085e-07 -4.20678e-25 1.43932e-05 -1.08959e-26 1.32605e-05)
(1.13386e-05 3.18599e-07 -0 1.35945e-05 -1.39287e-26 1.24669e-05)
(1.06103e-05 4.78792e-07 4.01578e-25 1.28476e-05 1.70446e-26 1.17297e-05)
(9.94693e-06 6.58112e-07 -4.08039e-25 1.21554e-05 -9.76193e-27 1.10517e-05)
(9.34917e-06 8.50296e-07 3.83332e-25 1.15215e-05 1.36862e-27 1.04365e-05)
(8.82179e-06 1.05042e-06 -0 1.09448e-05 1.52625e-26 9.8834e-06)
(8.36184e-06 1.25583e-06 -3.79309e-25 1.04262e-05 -7.20809e-27 9.39376e-06)
(7.96759e-06 1.4624e-06 -0 9.96469e-06 -7.46352e-27 8.96672e-06)
(7.64077e-06 1.66696e-06 1.57506e-26 9.55653e-06 5.38453e-31 8.5983e-06)
(7.37506e-06 1.86817e-06 -0 9.20217e-06 4.63404e-27 8.28817e-06)
(7.1672e-06 2.06238e-06 -1.56025e-25 8.90004e-06 -2.51733e-27 8.03356e-06)
(7.0142e-06 2.24795e-06 -0 8.64856e-06 -9.02088e-27 7.83144e-06)
(6.91226e-06 2.42294e-06 1.25737e-25 8.44605e-06 2.03988e-27 7.67848e-06)
(6.85412e-06 2.58377e-06 7.41015e-27 8.29184e-06 9.52218e-27 7.57264e-06)
(6.83671e-06 2.72964e-06 -1.26014e-25 8.18203e-06 -7.02879e-27 7.50905e-06)
(6.85447e-06 2.85805e-06 1.19197e-25 8.11244e-06 -5.83057e-27 7.48308e-06)
(6.90192e-06 2.96968e-06 5.64452e-26 8.07738e-06 5.32163e-27 7.4891e-06)
(6.97329e-06 3.06512e-06 6.79217e-27 8.07078e-06 2.40704e-27 7.52153e-06)
(7.06384e-06 3.14585e-06 -0 8.08591e-06 -0 7.57445e-06)
(7.16919e-06 3.21443e-06 3.23145e-27 8.11694e-06 -3.15395e-27 7.64287e-06)
(7.28706e-06 3.27443e-06 4.59488e-26 8.15901e-06 4.41171e-28 7.72273e-06)
(7.41506e-06 3.33118e-06 -0 8.20952e-06 2.74723e-27 7.81202e-06)
(7.55312e-06 3.38949e-06 -0 8.26775e-06 -0 7.91032e-06)
(7.70282e-06 3.45363e-06 -0 8.33474e-06 1.80495e-27 8.01865e-06)
(7.8663e-06 3.52887e-06 -1.81859e-26 8.41357e-06 -1.59366e-28 8.13973e-06)
(8.04657e-06 3.62016e-06 -1.31094e-27 8.50898e-06 -1.52695e-27 8.27765e-06)
(8.24738e-06 3.72981e-06 -0 8.62604e-06 -0 8.43658e-06)
(8.47188e-06 3.85985e-06 -0 8.77023e-06 -0 8.6209e-06)
(8.72178e-06 4.01125e-06 1.12343e-27 8.94552e-06 3.84055e-32 8.8335e-06)
(8.9959e-06 4.18131e-06 1.05947e-27 9.15284e-06 -1.04513e-27 9.07426e-06)
(9.28855e-06 4.36536e-06 5.24148e-27 9.38805e-06 -4.63578e-28 9.3382e-06)
(9.58613e-06 4.55646e-06 1.84172e-27 9.63888e-06 8.62732e-28 9.6124e-06)
(9.86489e-06 4.74248e-06 -0 9.88237e-06 9.66597e-28 9.87353e-06)
(1.0086e-05 4.90783e-06 -1.27746e-27 1.00798e-05 -3.58479e-29 1.00828e-05)
(1.01852e-05 5.02912e-06 -0 1.01662e-05 -4.00724e-28 1.01756e-05)
(1.00464e-05 5.06931e-06 -0 1.00243e-05 -0 1.00353e-05)
(9.41742e-06 4.96011e-06 -0 9.40004e-06 3.23622e-28 9.40853e-06)
(7.5245e-06 4.28419e-06 -1.48955e-28 7.51622e-06 2.3502e-28 7.52029e-06)
(1.03071e-06 1.41412e-07 9.60265e-31 1.03062e-06 -8.40754e-30 1.03067e-06)
(2.5493e-06 -4.70782e-07 -2.13336e-28 2.55988e-06 2.2421e-31 2.55393e-06)
(1.44321e-05 -8.23656e-06 -8.24108e-28 1.48042e-05 1.42416e-29 1.46175e-05)
(1.76493e-05 -8.90428e-06 8.03116e-31 1.81635e-05 -1.64167e-29 1.79034e-05)
(1.91666e-05 -9.19265e-06 2.40996e-26 1.95584e-05 -1.88381e-29 1.93484e-05)
(2.00614e-05 -9.16646e-06 -2.15196e-26 2.01124e-05 -9.31544e-29 2.00712e-05)
(2.06944e-05 -8.82975e-06 -1.98219e-29 2.0299e-05 3.58921e-29 2.04814e-05)
(2.12544e-05 -8.23679e-06 -9.01861e-26 2.03825e-05 -9.37528e-30 2.08035e-05)
(2.18399e-05 -7.46794e-06 -2.87269e-26 2.04939e-05 -2.98664e-30 2.11521e-05)
(2.24855e-05 -6.60407e-06 3.18377e-25 2.0674e-05 1.03392e-28 2.15656e-05)
(2.31907e-05 -5.70996e-06 -2.09527e-25 2.0914e-05 -8.50997e-29 2.20393e-05)
(2.39398e-05 -4.83042e-06 2.80017e-28 2.11883e-05 2.4018e-30 2.25523e-05)
(2.4712e-05 -3.9928e-06 -2.16887e-26 2.14698e-05 -6.9082e-28 2.30804e-05)
(2.54846e-05 -3.20702e-06 9.61146e-26 2.17392e-05 -1.13829e-27 2.36028e-05)
(2.62359e-05 -2.47836e-06 1.05861e-25 2.19852e-05 -6.11733e-28 2.41029e-05)
(2.69442e-05 -1.80737e-06 -1.81195e-25 2.22034e-05 -6.3315e-29 2.45676e-05)
(2.75875e-05 -1.19354e-06 3.66921e-25 2.23947e-05 1.31768e-27 2.49861e-05)
(2.81443e-05 -6.36577e-07 -0 2.25627e-05 -0 2.53493e-05)
(2.85939e-05 -1.36086e-07 2.13532e-27 2.27129e-05 9.89283e-28 2.565e-05)
(2.89177e-05 3.06087e-07 -1.37881e-25 2.28503e-05 -4.02152e-27 2.5882e-05)
(2.91046e-05 6.88423e-07 1.41249e-25 2.29762e-05 1.04183e-27 2.60382e-05)
(2.91423e-05 1.00652e-06 1.43667e-25 2.30917e-05 -2.32378e-28 2.6115e-05)
(2.90264e-05 1.25861e-06 5.78685e-25 2.31933e-05 1.15761e-26 2.61083e-05)
(2.87577e-05 1.44266e-06 -1.38462e-25 2.32741e-05 6.67637e-27 2.60149e-05)
(2.83418e-05 1.55696e-06 -5.89838e-25 2.33248e-05 -1.56459e-26 2.58332e-05)
(2.77906e-05 1.60292e-06 2.97573e-25 2.33326e-05 -5.27345e-27 2.5561e-05)
(2.71149e-05 1.5844e-06 2.96893e-25 2.32866e-05 1.52039e-26 2.52003e-05)
(2.63318e-05 1.50773e-06 -2.63991e-25 2.31736e-05 5.84886e-27 2.47524e-05)
(2.54585e-05 1.38079e-06 -2.50722e-24 2.2983e-05 -2.83389e-26 2.42205e-05)
(2.4513e-05 1.21491e-06 -3.45686e-25 2.27061e-05 -2.15678e-26 2.36091e-05)
(2.35128e-05 1.0219e-06 -4.71651e-26 2.23375e-05 -1.58865e-26 2.29241e-05)
(2.24722e-05 8.13481e-07 1.00186e-24 2.18766e-05 2.86164e-26 2.21736e-05)
(2.14066e-05 6.05826e-07 1.52364e-24 2.13255e-05 6.09506e-27 2.13657e-05)
(2.03291e-05 4.11359e-07 4.70513e-25 2.06903e-05 1.66511e-26 2.05097e-05)
(1.92522e-05 2.38366e-07 -0 1.99806e-05 -3.53293e-28 1.96156e-05)
(1.81828e-05 9.87959e-08 4.6846e-25 1.92102e-05 1.51641e-26 1.86956e-05)
(1.71303e-05 3.79126e-10 -1.77947e-24 1.83937e-05 -7.27773e-27 1.77608e-05)
(1.61008e-05 -5.47592e-08 2.67227e-24 1.75479e-05 1.67295e-26 1.6824e-05)
(1.51041e-05 -6.43794e-08 4.87416e-25 1.6688e-05 2.88575e-26 1.58955e-05)
(1.41452e-05 -3.04399e-08 1.41663e-24 1.58304e-05 -1.93495e-26 1.49874e-05)
(1.32303e-05 4.33356e-08 -2.85671e-24 1.499e-05 5.90121e-27 1.41105e-05)
(1.23685e-05 1.54529e-07 3.57981e-25 1.41777e-05 2.3715e-26 1.32726e-05)
(1.15615e-05 2.94378e-07 1.9192e-24 1.34056e-05 1.41583e-26 1.24835e-05)
(1.08164e-05 4.58209e-07 -3.78161e-25 1.26805e-05 -3.17442e-26 1.17485e-05)
(1.01364e-05 6.40685e-07 1.1392e-24 1.20075e-05 2.51666e-26 1.10722e-05)
(9.52446e-06 8.35724e-07 -1.34447e-24 1.13897e-05 1.26486e-26 1.04574e-05)
(8.98096e-06 1.0384e-06 9.75704e-25 1.08285e-05 -3.13528e-26 9.90556e-06)
(8.50811e-06 1.24401e-06 3.32195e-26 1.03224e-05 1.96165e-26 9.41547e-06)
(8.10197e-06 1.45218e-06 1.93911e-24 9.87185e-06 3.97938e-26 8.98738e-06)
(7.7617e-06 1.65893e-06 -1.64514e-24 9.47468e-06 -1.08439e-26 8.61883e-06)
(7.48451e-06 1.86026e-06 -1.01076e-24 9.12938e-06 -2.02752e-26 8.3075e-06)
(7.26625e-06 2.05529e-06 1.07844e-24 8.83508e-06 2.57074e-27 8.05128e-06)
(7.10308e-06 2.24213e-06 -0 8.5904e-06 -1.06056e-26 7.84732e-06)
(6.99078e-06 2.4165e-06 3.93523e-25 8.39404e-06 1.53383e-26 7.69278e-06)
(6.92408e-06 2.57714e-06 -2.4753e-25 8.24433e-06 4.26816e-27 7.5846e-06)
(6.89858e-06 2.72299e-06 5.69263e-25 8.13806e-06 -1.69784e-27 7.51857e-06)
(6.90824e-06 2.85146e-06 -5.50887e-25 8.07129e-06 5.78659e-27 7.49027e-06)
(6.94875e-06 2.96259e-06 -6.53557e-26 8.03808e-06 6.03472e-27 7.49377e-06)
(7.01379e-06 3.05753e-06 -2.10199e-25 8.0328e-06 -4.5164e-27 7.52381e-06)
(7.09937e-06 3.13762e-06 -0 8.04861e-06 -3.81499e-27 7.57422e-06)
(7.20005e-06 3.20646e-06 -9.4794e-26 8.08055e-06 2.26369e-27 7.64081e-06)
(7.31394e-06 3.26778e-06 -4.18185e-26 8.12371e-06 -5.68828e-27 7.71934e-06)
(7.4393e-06 3.32504e-06 5.88988e-27 8.17554e-06 -2.72452e-27 7.80776e-06)
(7.57579e-06 3.38423e-06 -1.88559e-25 8.23577e-06 -1.96033e-29 7.90604e-06)
(7.72447e-06 3.45075e-06 1.70525e-25 8.30572e-06 -1.76913e-27 8.01541e-06)
(7.88813e-06 3.5286e-06 1.63774e-26 8.38851e-06 -3.50419e-27 8.13856e-06)
(8.06987e-06 3.62225e-06 1.97433e-25 8.48883e-06 1.80374e-27 8.27951e-06)
(8.27298e-06 3.73505e-06 -1.5412e-25 8.61209e-06 3.04461e-27 8.44273e-06)
(8.50091e-06 3.8691e-06 -7.32117e-26 8.76351e-06 3.93659e-27 8.63238e-06)
(8.75496e-06 4.02379e-06 4.38092e-26 8.94679e-06 3.77277e-27 8.85105e-06)
(9.03388e-06 4.19689e-06 -8.82588e-26 9.16257e-06 -2.43324e-27 9.09836e-06)
(9.33076e-06 4.38406e-06 -4.63665e-27 9.40571e-06 -4.85885e-27 9.36833e-06)
(9.63167e-06 4.57715e-06 6.45583e-26 9.66362e-06 -7.12016e-28 9.64771e-06)
(9.91202e-06 4.76426e-06 -0 9.91246e-06 2.83994e-27 9.91232e-06)
(1.01323e-05 4.92909e-06 -3.00669e-26 1.01126e-05 -1.06986e-28 1.01225e-05)
(1.02278e-05 5.04833e-06 3.43453e-26 1.01986e-05 -1.17543e-27 1.02132e-05)
(1.00823e-05 5.08507e-06 -9.99184e-27 1.00533e-05 -1.03881e-30 1.00678e-05)
(9.44372e-06 4.97106e-06 4.7306e-27 9.42239e-06 -3.19176e-28 9.43289e-06)
(7.53857e-06 4.28867e-06 -2.96297e-27 7.52879e-06 7.42472e-28 7.53364e-06)
(1.03329e-06 1.41531e-07 -6.64886e-30 1.03318e-06 -1.15575e-29 1.03324e-06)
(2.44486e-06 -4.70588e-07 -4.72631e-29 2.48246e-06 -1.50921e-27 2.46364e-06)
(1.39149e-05 -8.12208e-06 -1.36459e-28 1.47262e-05 5.29998e-26 1.43255e-05)
(1.69373e-05 -8.49667e-06 6.51254e-27 1.79516e-05 9.29094e-26 1.74421e-05)
(1.83816e-05 -8.62288e-06 -3.3054e-23 1.93592e-05 6.73727e-25 1.88661e-05)
(1.92806e-05 -8.52984e-06 4.19865e-23 2.00029e-05 -1.1656e-24 1.96387e-05)
(1.99605e-05 -8.19594e-06 -5.48805e-26 2.02774e-05 -1.41032e-25 2.01163e-05)
(2.05812e-05 -7.644e-06 7.46396e-23 2.04042e-05 -1.68776e-24 2.04898e-05)
(2.12266e-05 -6.92936e-06 2.94194e-24 2.05069e-05 1.52857e-24 2.08633e-05)
(2.19289e-05 -6.11957e-06 -2.17084e-22 2.06381e-05 3.72811e-24 2.12798e-05)
(2.26903e-05 -5.27635e-06 1.27423e-22 2.08057e-05 -3.73805e-24 2.1744e-05)
(2.34952e-05 -4.44573e-06 -1.83367e-26 2.09967e-05 7.88067e-25 2.2242e-05)
(2.43236e-05 -3.65887e-06 -1.45348e-24 2.11933e-05 -1.91547e-27 2.27546e-05)
(2.51544e-05 -2.93453e-06 1.92104e-24 2.13808e-05 -2.2468e-27 2.32636e-05)
(2.59651e-05 -2.27791e-06 4.41565e-26 2.15505e-05 -7.62252e-25 2.37538e-05)
(2.67341e-05 -1.68822e-06 1.10549e-22 2.16983e-05 7.59428e-26 2.42122e-05)
(2.74383e-05 -1.16409e-06 -1.17511e-22 2.18257e-05 1.62167e-24 2.46286e-05)
(2.80577e-05 -7.02637e-07 -1.45445e-26 2.19352e-05 -8.86859e-25 2.49931e-05)
(2.8571e-05 -2.96607e-07 -5.05496e-25 2.20322e-05 3.30652e-27 2.52986e-05)
(2.89605e-05 5.83563e-08 -2.57048e-24 2.21209e-05 -4.99936e-27 2.55378e-05)
(2.92114e-05 3.62307e-07 -2.36749e-25 2.22044e-05 -4.87425e-29 2.5705e-05)
(2.93123e-05 6.15614e-07 6.15994e-24 2.22836e-05 -4.00563e-27 2.57953e-05)
(2.9258e-05 8.16638e-07 -2.71072e-24 2.23555e-05 6.21762e-27 2.58039e-05)
(2.90457e-05 9.67525e-07 -1.13068e-24 2.24155e-05 -7.5817e-27 2.57284e-05)
(2.86814e-05 1.06784e-06 4.73934e-24 2.24541e-05 6.21566e-27 2.55655e-05)
(2.8173e-05 1.11501e-06 -4.76434e-24 2.24609e-05 4.65613e-27 2.53143e-05)
(2.75313e-05 1.11141e-06 -1.14013e-24 2.24246e-05 3.17184e-27 2.49759e-05)
(2.67737e-05 1.06115e-06 -2.25147e-24 2.23316e-05 -1.66481e-24 2.45505e-05)
(2.59171e-05 9.70023e-07 1.35571e-22 2.21708e-05 2.93018e-24 2.40413e-05)
(2.49777e-05 8.44837e-07 1.17393e-23 2.19332e-05 1.71547e-24 2.34533e-05)
(2.39747e-05 6.94418e-07 -6.97494e-24 2.16116e-05 9.29205e-26 2.27915e-05)
(2.29259e-05 5.29889e-07 -6.36938e-24 2.12021e-05 1.69102e-24 2.20626e-05)
(2.18477e-05 3.64149e-07 -1.26319e-22 2.07054e-05 -2.98521e-24 2.12745e-05)
(2.0751e-05 2.07737e-07 8.20557e-24 2.01271e-05 -1.49374e-24 2.0438e-05)
(1.96522e-05 7.08439e-08 -6.63954e-24 1.94737e-05 2.3646e-26 1.95614e-05)
(1.85594e-05 -3.79416e-08 6.50673e-24 1.87578e-05 -1.72063e-24 1.86572e-05)
(1.74827e-05 -1.12643e-07 1.15962e-22 1.79926e-05 4.45891e-24 1.77363e-05)
(1.64303e-05 -1.46662e-07 -1.13063e-22 1.71937e-05 -1.024e-24 1.68109e-05)
(1.5411e-05 -1.3931e-07 9.87679e-25 1.63762e-05 6.85514e-26 1.5892e-05)
(1.4429e-05 -9.30316e-08 -1.088e-22 1.55571e-05 -5.88005e-24 1.49924e-05)
(1.34947e-05 -7.51942e-09 2.01882e-22 1.47493e-05 2.86233e-24 1.41212e-05)
(1.2612e-05 1.11577e-07 4.01986e-24 1.39667e-05 5.05532e-24 1.32889e-05)
(1.17867e-05 2.58392e-07 -1.00632e-22 1.32197e-05 -2.08838e-24 1.25034e-05)
(1.10256e-05 4.27585e-07 -2.12935e-26 1.25155e-05 -1.70996e-24 1.17702e-05)
(1.03305e-05 6.14073e-07 3.07807e-24 1.18606e-05 -9.94164e-25 1.10949e-05)
(9.70342e-06 8.11889e-07 4.63916e-23 1.12588e-05 1.81816e-24 1.04807e-05)
(9.1458e-06 1.01784e-06 -4.88905e-23 1.07117e-05 -9.60049e-25 9.92893e-06)
(8.6588e-06 1.22786e-06 4.84954e-23 1.02183e-05 1.90958e-24 9.43867e-06)
(8.24043e-06 1.43739e-06 -8.74305e-23 9.77854e-06 -1.50455e-24 9.00943e-06)
(7.8879e-06 1.64544e-06 4.15848e-23 9.39134e-06 -2.41814e-24 8.63975e-06)
(7.59853e-06 1.84934e-06 4.24646e-23 9.05509e-06 2.71343e-24 8.32717e-06)
(7.36989e-06 2.04549e-06 -3.8321e-23 8.76823e-06 5.16976e-25 8.06889e-06)
(7.19585e-06 2.2328e-06 -4.68941e-27 8.53054e-06 -1.01716e-24 7.86321e-06)
(7.07309e-06 2.40859e-06 5.4173e-25 8.34014e-06 1.55265e-26 7.70678e-06)
(6.99703e-06 2.56974e-06 -2.69518e-25 8.19509e-06 6.76436e-25 7.59628e-06)
(6.96256e-06 2.71519e-06 -1.68123e-23 8.09245e-06 -8.53388e-25 7.52779e-06)
(6.96484e-06 2.84334e-06 1.43326e-23 8.0281e-06 -4.30718e-25 7.49666e-06)
(6.99792e-06 2.95456e-06 2.12891e-24 7.99686e-06 5.78596e-25 7.49762e-06)
(7.05686e-06 3.04991e-06 2.05747e-25 7.99266e-06 2.0938e-26 7.52489e-06)
(7.13626e-06 3.13024e-06 1.23944e-26 8.00979e-06 3.79103e-27 7.57335e-06)
(7.23301e-06 3.1988e-06 -6.87429e-25 8.04221e-06 6.96233e-28 7.63758e-06)
(7.34301e-06 3.26065e-06 7.37195e-25 8.08658e-06 1.80694e-26 7.71481e-06)
(7.46511e-06 3.31952e-06 -1.67872e-25 8.14036e-06 -4.36024e-25 7.80293e-06)
(7.59979e-06 3.38029e-06 4.98352e-24 8.20275e-06 4.49756e-25 7.90126e-06)
(7.74768e-06 3.44837e-06 -4.46473e-24 8.2759e-06 3.35487e-25 8.01182e-06)
(7.91147e-06 3.52885e-06 3.26258e-25 8.36289e-06 1.13924e-25 8.13724e-06)
(8.09437e-06 3.62575e-06 -4.32587e-24 8.46848e-06 -5.07353e-25 8.28155e-06)
(8.30009e-06 3.74195e-06 3.70475e-24 8.5981e-06 -6.04202e-25 8.44921e-06)
(8.53162e-06 3.87916e-06 1.64844e-24 8.75678e-06 6.51774e-25 8.6442e-06)
(8.7899e-06 4.03777e-06 -1.25368e-24 8.9482e-06 -7.4243e-26 8.86909e-06)
(9.07342e-06 4.21471e-06 9.81063e-25 9.17244e-06 -1.82176e-25 9.12294e-06)
(9.3746e-06 4.40455e-06 6.52742e-26 9.4239e-06 4.71264e-25 9.3993e-06)
(9.67881e-06 4.59958e-06 -1.1073e-24 9.68893e-06 -1.68337e-26 9.68387e-06)
(9.96053e-06 4.78742e-06 -1.56553e-28 9.94293e-06 -3.45557e-25 9.95174e-06)
(1.01797e-05 4.95158e-06 3.77382e-25 1.01456e-05 2.17966e-25 1.01627e-05)
(1.02711e-05 5.06845e-06 -5.1432e-25 1.02313e-05 1.82515e-26 1.02512e-05)
(1.01185e-05 5.10131e-06 1.57462e-25 1.00823e-05 -9.66788e-26 1.01004e-05)
(9.47003e-06 4.98225e-06 -3.42488e-26 9.44464e-06 -1.09394e-28 9.45713e-06)
(7.55273e-06 4.29321e-06 1.00111e-26 7.54157e-06 -1.43698e-26 7.5471e-06)
(1.036e-06 1.4167e-07 1.6632e-28 1.03589e-06 4.08429e-28 1.03595e-06)
(2.29665e-06 -4.44459e-07 3.41542e-27 2.38365e-06 1.14188e-30 2.3408e-06)
(1.31453e-05 -7.92639e-06 -7.60643e-26 1.46562e-05 -1.31067e-28 1.39071e-05)
(1.6125e-05 -8.14225e-06 -1.38102e-26 1.76451e-05 7.22084e-28 1.68779e-05)
(1.75889e-05 -8.11509e-06 -3.88212e-26 1.89396e-05 8.6542e-29 1.82681e-05)
(1.85505e-05 -7.93857e-06 -8.81224e-26 1.9578e-05 -3.01956e-25 1.90737e-05)
(1.93265e-05 -7.58887e-06 1.13871e-22 1.98807e-05 -4.14127e-24 1.96138e-05)
(2.00601e-05 -7.07022e-06 -2.79194e-22 2.00181e-05 1.18806e-23 2.00494e-05)
(2.08192e-05 -6.4144e-06 1.69425e-22 2.00965e-05 -8.33295e-24 2.04683e-05)
(2.16282e-05 -5.67151e-06 -6.73578e-25 2.01725e-05 2.15705e-24 2.09107e-05)
(2.24841e-05 -4.89382e-06 -2.45005e-22 2.02673e-05 8.86225e-24 2.13858e-05)
(2.33713e-05 -4.12753e-06 -4.88373e-24 2.03815e-05 -6.24905e-24 2.18859e-05)
(2.4269e-05 -3.40532e-06 6.35557e-22 2.05071e-05 -1.55355e-23 2.23967e-05)
(2.51554e-05 -2.74754e-06 -7.07676e-22 2.06354e-05 2.52409e-23 2.29034e-05)
(2.60105e-05 -2.16349e-06 -4.3706e-24 2.0759e-05 -9.53864e-24 2.33919e-05)
(2.68142e-05 -1.65422e-06 4.17955e-22 2.0874e-05 -1.04025e-23 2.38502e-05)
(2.75468e-05 -1.2145e-06 -1.05249e-24 2.09793e-05 3.40585e-24 2.42685e-05)
(2.81902e-05 -8.36984e-07 -4.13653e-27 2.10757e-05 -3.46009e-27 2.46376e-05)
(2.87269e-05 -5.1624e-07 -6.9452e-25 2.11652e-05 -4.55707e-24 2.49499e-05)
(2.914e-05 -2.43236e-07 5.08995e-22 2.12506e-05 -4.92282e-24 2.51987e-05)
(2.94168e-05 -1.28379e-08 9.52167e-24 2.13333e-05 1.65711e-23 2.53781e-05)
(2.95464e-05 1.78488e-07 -1.08204e-21 2.14133e-05 -1.06026e-26 2.54827e-05)
(2.95219e-05 3.33134e-07 5.56625e-22 2.14886e-05 -1.22526e-23 2.55083e-05)
(2.93431e-05 4.52524e-07 2.05177e-24 2.15532e-05 1.12128e-23 2.54505e-05)
(2.90104e-05 5.37291e-07 -5.71335e-22 2.16008e-05 -8.62484e-24 2.53077e-05)
(2.85309e-05 5.82925e-07 5.6616e-22 2.16217e-05 -3.1319e-24 2.50784e-05)
(2.79159e-05 5.92699e-07 -5.47928e-24 2.16043e-05 5.81049e-24 2.4762e-05)
(2.7179e-05 5.69157e-07 1.18449e-23 2.15373e-05 -6.33324e-24 2.436e-05)
(2.63368e-05 5.10878e-07 5.21711e-22 2.14088e-05 2.00852e-23 2.38744e-05)
(2.54061e-05 4.25223e-07 -1.05095e-21 2.12096e-05 -1.51756e-23 2.33096e-05)
(2.44047e-05 3.20282e-07 5.19132e-22 2.0932e-05 -1.12997e-23 2.26709e-05)
(2.33522e-05 2.01998e-07 5.12611e-22 2.05707e-05 1.48931e-23 2.19639e-05)
(2.22652e-05 7.97035e-08 -4.11844e-24 2.01247e-05 1.328e-23 2.11963e-05)
(2.11562e-05 -3.46292e-08 -4.88611e-22 1.95983e-05 -1.54585e-23 2.03785e-05)
(2.00391e-05 -1.34491e-07 4.83603e-22 1.89978e-05 9.34188e-24 1.95203e-05)
(1.89273e-05 -2.11452e-07 -4.64981e-22 1.83325e-05 -2.23444e-24 1.86316e-05)
(1.78305e-05 -2.56318e-07 -2.04375e-24 1.76151e-05 -6.29324e-24 1.77243e-05)
(1.67575e-05 -2.66283e-07 -8.48084e-24 1.68604e-05 3.38479e-24 1.68104e-05)
(1.57162e-05 -2.40175e-07 -1.99503e-22 1.60836e-05 -7.42348e-24 1.59016e-05)
(1.47154e-05 -1.7721e-07 1.97991e-22 1.52996e-05 -2.9438e-24 1.5009e-05)
(1.37628e-05 -7.93921e-08 2.12883e-22 1.45226e-05 1.05429e-23 1.41431e-05)
(1.28613e-05 4.97602e-08 -1.98613e-22 1.37671e-05 -2.59978e-25 1.33149e-05)
(1.20194e-05 2.05509e-07 6.82837e-24 1.30429e-05 -3.28454e-24 1.25317e-05)
(1.12402e-05 3.827e-07 -1.45184e-23 1.23593e-05 3.81307e-24 1.18007e-05)
(1.05302e-05 5.74825e-07 -1.714e-22 1.17212e-05 -2.91071e-24 1.11256e-05)
(9.88773e-06 7.77758e-07 -9.56793e-24 1.11344e-05 -7.41944e-24 1.05113e-05)
(9.31759e-06 9.88342e-07 1.83731e-22 1.05992e-05 6.8938e-24 9.95766e-06)
(8.81577e-06 1.20127e-06 -1.8278e-22 1.01178e-05 -3.05544e-24 9.46665e-06)
(8.38348e-06 1.41494e-06 1.63858e-22 9.68856e-06 -1.5223e-24 9.03617e-06)
(8.01869e-06 1.62622e-06 3.6542e-24 9.31021e-06 6.11533e-24 8.6643e-06)
(7.71791e-06 1.83257e-06 -7.75181e-23 8.98181e-06 -3.20531e-24 8.34928e-06)
(7.4764e-06 2.03102e-06 6.83383e-23 8.70275e-06 -1.11653e-24 8.08926e-06)
(7.292e-06 2.21983e-06 3.65882e-24 8.47101e-06 2.00914e-24 7.88079e-06)
(7.15849e-06 2.3963e-06 -3.49588e-24 8.28605e-06 -2.2567e-26 7.72187e-06)
(7.07265e-06 2.55838e-06 4.11437e-25 8.14521e-06 -2.61258e-24 7.60855e-06)
(7.02941e-06 2.70531e-06 6.21698e-23 8.04574e-06 5.88278e-25 7.53704e-06)
(7.02276e-06 2.83426e-06 -4.76164e-26 7.98395e-06 5.03012e-24 7.50309e-06)
(7.04885e-06 2.94564e-06 -5.46411e-23 7.95421e-06 -4.92288e-25 7.50094e-06)
(7.10084e-06 3.04051e-06 -1.99658e-24 7.95135e-06 -2.4182e-24 7.52562e-06)
(7.17454e-06 3.12158e-06 1.16068e-24 7.96932e-06 -1.52972e-24 7.57154e-06)
(7.26599e-06 3.19149e-06 2.24214e-23 8.00296e-06 1.68324e-24 7.63405e-06)
(7.3723e-06 3.25335e-06 -1.97206e-23 8.04847e-06 1.1242e-24 7.70983e-06)
(7.49141e-06 3.31347e-06 1.57753e-25 8.10392e-06 -1.31091e-24 7.79727e-06)
(7.6239e-06 3.37612e-06 -1.31936e-24 8.16898e-06 2.26713e-26 7.89612e-06)
(7.77092e-06 3.44644e-06 -3.02024e-25 8.24538e-06 8.69244e-25 8.0079e-06)
(7.93508e-06 3.52945e-06 -8.26888e-24 8.33658e-06 -9.8589e-25 8.13555e-06)
(8.11947e-06 3.62937e-06 7.73129e-24 8.44759e-06 -6.64414e-25 8.28334e-06)
(8.32773e-06 3.74962e-06 3.16096e-26 8.58369e-06 7.60968e-25 8.45558e-06)
(8.56285e-06 3.89095e-06 6.18458e-25 8.74993e-06 9.61503e-25 8.65622e-06)
(8.82569e-06 4.05304e-06 -6.40918e-24 8.94952e-06 -1.55589e-24 8.88739e-06)
(9.11372e-06 4.2334e-06 8.16145e-24 9.18236e-06 -1.84675e-25 9.14792e-06)
(9.4194e-06 4.42665e-06 -2.69678e-24 9.44205e-06 1.16504e-24 9.43055e-06)
(9.72673e-06 4.62379e-06 1.90069e-25 9.7144e-06 -4.08641e-25 9.72047e-06)
(1.00099e-05 4.81219e-06 1.56582e-27 9.97376e-06 1.04724e-26 9.99173e-06)
(1.0228e-05 4.97521e-06 1.19964e-26 1.01793e-05 -2.6975e-25 1.02035e-05)
(1.03152e-05 5.08935e-06 5.30647e-25 1.02646e-05 2.93284e-25 1.02898e-05)
(1.01555e-05 5.11808e-06 -4.63929e-25 1.01121e-05 1.6206e-25 1.01336e-05)
(9.49717e-06 4.99349e-06 3.05299e-26 9.46794e-06 -2.41283e-25 9.48229e-06)
(7.56848e-06 4.29876e-06 1.15943e-27 7.55611e-06 6.44343e-26 7.56221e-06)
(1.03929e-06 1.41997e-07 -4.21277e-28 1.03918e-06 -3.85727e-28 1.03924e-06)
(2.14633e-06 -3.98872e-07 6.14939e-25 2.28425e-06 -4.24693e-26 2.21567e-06)
(1.22429e-05 -7.60289e-06 -2.24065e-23 1.45744e-05 1.01694e-24 1.34041e-05)
(1.52768e-05 -7.87643e-06 1.04802e-25 1.73482e-05 9.03339e-25 1.62846e-05)
(1.68252e-05 -7.77938e-06 1.17944e-22 1.84651e-05 -9.26614e-24 1.76315e-05)
(1.78875e-05 -7.54735e-06 1.2455e-23 1.90152e-05 4.62912e-26 1.84447e-05)
(1.87817e-05 -7.18748e-06 -2.00245e-22 1.92833e-05 1.39409e-23 1.90258e-05)
(1.9644e-05 -6.70541e-06 2.66072e-22 1.9397e-05 -1.53465e-23 1.95135e-05)
(2.05327e-05 -6.11723e-06 -6.40061e-22 1.94383e-05 4.16092e-23 1.9979e-05)
(2.14644e-05 -5.45597e-06 3.80157e-22 1.94588e-05 -2.8462e-23 2.04558e-05)
(2.24316e-05 -4.76283e-06 -2.22162e-24 1.94857e-05 2.63328e-24 2.09537e-05)
(2.34156e-05 -4.07526e-06 3.22696e-24 1.95292e-05 -1.52475e-26 2.14682e-05)
(2.4393e-05 -3.42566e-06 1.82708e-24 1.95912e-05 3.1306e-27 2.19886e-05)
(2.5341e-05 -2.83546e-06 -5.7324e-24 1.9669e-05 -2.16351e-27 2.25026e-05)
(2.624e-05 -2.3136e-06 -1.42473e-25 1.97585e-05 2.91161e-27 2.29977e-05)
(2.70717e-05 -1.86411e-06 -5.64572e-24 1.98562e-05 6.20294e-27 2.34629e-05)
(2.78205e-05 -1.48447e-06 1.45838e-23 1.9959e-05 -1.69666e-26 2.38887e-05)
(2.84702e-05 -1.16827e-06 -6.89547e-24 2.00656e-05 -3.18012e-26 2.42672e-05)
(2.90082e-05 -9.05866e-07 -7.83163e-25 2.01741e-05 -9.39583e-24 2.45905e-05)