/*--------------------------------*- C++ -*----------------------------------*\
  =========                 |
  \\      /  F ield         | OpenFOAM: The Open Source CFD Toolbox
   \\    /   O peration     | Website:  https://openfoam.org
    \\  /    A nd           | Version:  7
     \\/     M anipulation  |
\*---------------------------------------------------------------------------*/
FoamFile
{
    version     2.0;
    format      ascii;
    class       volVectorField;
    location    "20000";
    object      U;
}
// * * * * * * * * * * * * * * * * * * * * * * * * * * * * * * * * * * * * * //

dimensions      [0 1 -1 0 0 0 0];

internalField   nonuniform List<vector> 
10981
(
(0.00578088 -1.35703e-05 0)
(0.011889 -2.36207e-05 0)
(0.0153972 -2.41985e-06 0)
(0.0180197 4.61658e-05 0)
(0.0200762 0.000119982 0)
(0.0216689 0.000208059 0)
(0.0228776 0.000299976 0)
(0.0237874 0.00038936 0)
(0.0244774 0.000473512 0)
(0.0250116 0.000551962 0)
(0.0254362 0.00062525 0)
(0.0257835 0.000694212 0)
(0.0260754 0.000759637 0)
(0.0263268 0.00082212 0)
(0.0265479 0.000882023 0)
(0.0267459 0.000939473 0)
(0.0269256 0.000994386 0)
(0.027091 0.0010465 0)
(0.0272449 0.00109542 0)
(0.0273895 0.00114064 0)
(0.0275268 0.00118162 0)
(0.0276585 0.00121779 0)
(0.0277861 0.00124865 0)
(0.0279111 0.00127373 0)
(0.0280349 0.00129269 0)
(0.0281587 0.00130531 0)
(0.0282837 0.00131152 0)
(0.0284109 0.00131139 0)
(0.0285411 0.00130517 0)
(0.0286749 0.00129319 0)
(0.0288124 0.00127595 0)
(0.0289535 0.00125399 0)
(0.0290977 0.00122793 0)
(0.029244 0.0011984 0)
(0.0293909 0.00116602 0)
(0.0295368 0.00113135 0)
(0.0296793 0.0010949 0)
(0.0298162 0.00105711 0)
(0.0299448 0.00101831 0)
(0.0300626 0.000978791 0)
(0.0301673 0.000938761 0)
(0.0302566 0.000898386 0)
(0.0303286 0.000857803 0)
(0.0303817 0.000817133 0)
(0.0304146 0.000776486 0)
(0.0304264 0.000735973 0)
(0.0304161 0.000695701 0)
(0.0303827 0.000655772 0)
(0.0303255 0.000616278 0)
(0.0302432 0.000577297 0)
(0.0301347 0.000538891 0)
(0.0299988 0.000501104 0)
(0.0298344 0.000463968 0)
(0.0296404 0.000427505 0)
(0.0294164 0.000391736 0)
(0.0291625 0.000356696 0)
(0.0288795 0.000322436 0)
(0.0285685 0.000289037 0)
(0.028231 0.000256606 0)
(0.0278684 0.000225278 0)
(0.0274816 0.000195214 0)
(0.0270705 0.000166589 0)
(0.026634 0.000139592 0)
(0.0261695 0.000114416 0)
(0.0256727 9.12552e-05 0)
(0.0251375 7.02982e-05 0)
(0.0245561 5.17201e-05 0)
(0.0239186 3.56712e-05 0)
(0.023213 2.22603e-05 0)
(0.0224257 1.15341e-05 0)
(0.0215409 3.45815e-06 0)
(0.0205405 -2.10195e-06 0)
(0.0194024 -5.38639e-06 0)
(0.0180978 -6.73557e-06 0)
(0.0165835 -6.56814e-06 0)
(0.0147858 -5.3498e-06 0)
(0.0125552 -3.59911e-06 0)
(0.00950152 -1.85456e-06 0)
(0.00427599 -3.13603e-07 0)
(0.00591445 -1.83304e-05 0)
(0.0119411 -4.92184e-05 -5.46763e-27)
(0.0153099 -6.17885e-05 0)
(0.0178036 -5.53499e-05 0)
(0.0197777 -2.60074e-05 0)
(0.0213399 2.07989e-05 0)
(0.0225564 7.74073e-05 0)
(0.0234937 0.000137795 0)
(0.0242169 0.000198432 0)
(0.0247823 0.000257817 1.24739e-26)
(0.0252337 0.000315661 0)
(0.0256031 0.000372244 1.36502e-26)
(0.0259131 0.000428014 0)
(0.0261796 0.000483378 0)
(0.0264137 0.000538592 3.20809e-26)
(0.0266232 0.00059372 0)
(0.0268139 0.000648621 0)
(0.0269899 0.00070296 0)
(0.0271541 0.000756235 8.0219e-26)
(0.0273092 0.000807809 -8.4574e-26)
(0.0274569 0.000856959 -8.89987e-26)
(0.0275989 0.000902921 0)
(0.0277368 0.000944937 9.7968e-26)
(0.0278717 0.000982306 0)
(0.0280051 0.00101442 2.14049e-25)
(0.0281379 0.0010408 -2.23179e-25)
(0.0282713 0.00106113 2.32396e-25)
(0.0284061 0.00107526 0)
(0.0285431 0.00108319 2.51276e-25)
(0.0286828 0.0010851 0)
(0.0288254 0.00108133 0)
(0.0289708 0.00107231 0)
(0.0291185 0.00105856 -5.85233e-25)
(0.0292677 0.00104065 0)
(0.0294169 0.00101917 -6.32332e-25)
(0.0295645 0.000994687 0)
(0.0297084 0.000967712 0)
(0.0298463 0.000938704 7.12898e-25)
(0.0299758 0.00090805 7.42857e-25)
(0.0300944 0.000876068 0)
(0.0301998 0.000843017 -8.0841e-25)
(0.0302897 0.000809109 0)
(0.0303623 0.000774524 8.83503e-25)
(0.0304161 0.000739422 -9.25855e-25)
(0.0304497 0.000703953 9.72387e-25)
(0.0304622 0.00066826 0)
(0.0304526 0.000632481 -1.08199e-24)
(0.03042 0.000596745 0)
(0.0303635 0.00056117 0)
(0.0302821 0.000525857 0)
(0.0301745 0.000490888 -7.0044e-25)
(0.0300397 0.000456327 0)
(0.0298763 0.000422224 8.13158e-25)
(0.0296835 0.000388615 0)
(0.0294608 0.000355539 -9.49175e-25)
(0.0292082 0.000323042 1.02524e-24)
(0.0289266 0.000291191 5.53128e-25)
(0.0286169 0.000260075 0)
(0.0282807 0.000229813 0)
(0.0279191 0.000200551 0)
(0.0275331 0.000172458 7.40591e-25)
(0.0271225 0.000145718 0)
(0.026686 0.000120529 0)
(0.0262208 9.70925e-05 0)
(0.0257227 7.56108e-05 -4.95753e-25)
(0.0251854 5.62795e-05 0)
(0.0246008 3.92788e-05 0)
(0.0239591 2.47609e-05 0)
(0.0232484 1.28323e-05 0)
(0.0224549 3.53505e-06 0)
(0.0215632 -3.17531e-06 4.08259e-25)
(0.0205553 -7.4467e-06 2.2407e-25)
(0.0194097 -9.53827e-06 0)
(0.0180982 -9.81362e-06 -2.7642e-25)
(0.016578 -8.70929e-06 0)
(0.014776 -6.70579e-06 0)
(0.0125433 -4.33789e-06 0)
(0.0094901 -2.14706e-06 -3.33812e-25)
(0.00426954 -3.50838e-07 -4.66568e-25)
(0.00622335 -2.96214e-05 0)
(0.0122348 -8.77274e-05 -9.92331e-27)
(0.0154817 -0.000134995 0)
(0.0178433 -0.00016893 0)
(0.01971 -0.000181944 1.01065e-26)
(0.0212035 -0.000175565 0)
(0.0223868 -0.000154702 0)
(0.023315 -0.000124266 0)
(0.0240419 -8.78335e-05 0)
(0.0246161 -4.75231e-05 -1.25449e-26)
(0.025077 -4.36823e-06 0)
(0.0254551 4.12437e-05 -1.38132e-26)
(0.0257727 8.92307e-05 6.28352e-26)
(0.0260458 0.000139593 6.60763e-26)
(0.026286 0.000192282 1.06503e-25)
(0.0265015 0.000247128 0)
(0.0266984 0.000303803 0)
(0.026881 0.000361816 0)
(0.0270526 0.000420519 -8.11506e-26)
(0.0272156 0.000479133 8.55174e-26)
(0.0273719 0.000536783 8.99497e-26)
(0.0275231 0.000592541 3.87606e-25)
(0.0276704 0.000645476 -9.89205e-26)
(0.027815 0.000694694 -4.20946e-25)
(0.0279579 0.000739393 2.21868e-25)
(0.0281001 0.000778892 2.25017e-25)
(0.0282424 0.000812668 -2.34191e-25)
(0.0283856 0.000840374 -9.79231e-25)
(0.0285303 0.000861845 -2.52958e-25)
(0.0286769 0.000877098 0)
(0.0288256 0.000886315 1.0911e-24)
(0.0289764 0.00088982 0)
(0.0291286 0.000888048 5.87963e-25)
(0.0292815 0.000881507 0)
(0.0294339 0.000870743 6.34694e-25)
(0.0295841 0.000856304 0)
(0.0297301 0.000838713 1.3673e-24)
(0.0298698 0.000818443 7.08191e-25)
(0.0300007 0.000795912 -7.44461e-25)
(0.0301206 0.000771473 1.54434e-24)
(0.0302271 0.000745426 8.09601e-25)
(0.030318 0.000718024 0)
(0.0303917 0.000689486 -8.84191e-25)
(0.0304464 0.000660011 2.76888e-24)
(0.030481 0.000629784 -9.72389e-25)
(0.0304943 0.00059898 0)
(0.0304856 0.000567766 3.23149e-24)
(0.030454 0.000536298 0)
(0.0303984 0.000504717 -2.42543e-24)
(0.0303179 0.000473147 0)
(0.0302114 0.000441691 6.98311e-25)
(0.0300776 0.00041043 0)
(0.0299153 0.000379431 2.41219e-24)
(0.0297238 0.000348748 -1.73938e-24)
(0.0295024 0.000318433 9.44459e-25)
(0.0292512 0.000288546 -1.01978e-24)
(0.0289709 0.000259166 -5.50007e-25)
(0.0286626 0.000230395 -2.35734e-24)
(0.0283276 0.000202363 0)
(0.0279672 0.000175225 -1.36282e-24)
(0.0275819 0.000149159 -7.35814e-25)
(0.0271716 0.000124361 0)
(0.026735 0.000101036 0)
(0.0262691 7.93948e-05 0)
(0.0257694 5.96469e-05 4.92344e-25)
(0.0252297 4.19939e-05 1.05766e-24)
(0.0246418 2.66203e-05 0)
(0.0239957 1.36789e-05 0)
(0.0232794 3.27343e-06 -1.35056e-24)
(0.0224795 -4.56072e-06 -1.47156e-24)
(0.0215805 -9.87897e-06 -4.04052e-25)
(0.020565 -1.28456e-05 6.59848e-25)
(0.0194119 -1.3741e-05 0)
(0.0180935 -1.29474e-05 -8.12466e-25)
(0.0165677 -1.09152e-05 0)
(0.0147618 -8.13451e-06 0)
(0.0125275 -5.14977e-06 0)
(0.00947568 -2.50485e-06 3.29012e-25)
(0.00426145 -4.06163e-07 -1.36606e-24)
(0.00653872 -0.000123725 5.81816e-23)
(0.012619 -0.000259051 2.70272e-26)
(0.0157861 -0.000350952 -3.03546e-27)
(0.0180326 -0.000418336 -6.0944e-23)
(0.0197883 -0.000461466 4.9726e-23)
(0.0211949 -0.000482234 2.7572e-26)
(0.02232 -0.000484145 9.60972e-23)
(0.0232135 -0.000471285 2.37421e-23)
(0.0239217 -0.000447334 -2.07074e-22)
(0.0244863 -0.000415055 1.00527e-22)
(0.0249427 -0.000376279 -1.18883e-25)
(0.0253187 -0.000332128 0)
(0.0256356 -0.000283288 7.15559e-26)
(0.0259091 -0.00023022 -6.64768e-26)
(0.0261506 -0.00017331 7.88011e-23)
(0.0263684 -0.000112969 -7.26485e-23)
(0.0265687 -4.96937e-05 0)
(0.026756 1.59074e-05 -3.42865e-25)
(0.0269334 8.3102e-05 0)
(0.0271033 0.000151045 0)
(0.0272675 0.000218803 0)
(0.0274274 0.000285383 4.15316e-25)
(0.0275842 0.000349777 -8.35426e-25)
(0.0277386 0.000411006 4.23153e-25)
(0.0278915 0.000468159 -4.39931e-25)
(0.0280436 0.00052044 -9.27746e-25)
(0.0281956 0.000567197 -1.91901e-24)
(0.028348 0.000607949 1.30636e-22)
(0.0285013 0.0006424 6.68538e-24)
(0.0286558 0.000670439 4.34702e-24)
(0.0288117 0.000692133 5.1588e-24)
(0.0289688 0.000707708 -1.39765e-22)
(0.0291266 0.000717516 2.35177e-24)
(0.0292843 0.000722005 0)
(0.0294407 0.000721681 0)
(0.0295943 0.000717073 1.70621e-22)
(0.0297433 0.000708698 -1.73479e-22)
(0.0298854 0.000697044 -4.25752e-24)
(0.0300185 0.000682548 -1.8842e-22)
(0.0301403 0.000665597 3.89302e-22)
(0.0302484 0.000646523 4.24069e-24)
(0.0303409 0.000625616 -2.15712e-22)
(0.0304159 0.000603132 0)
(0.030472 0.000579304 -1.83845e-24)
(0.0305078 0.000554349 1.24019e-22)
(0.0305225 0.000528471 -1.28729e-22)
(0.0305149 0.000501866 1.39702e-22)
(0.0304844 0.000474715 -2.85289e-22)
(0.03043 0.000447181 1.55793e-22)
(0.0303507 0.000419409 1.70391e-22)
(0.0302453 0.000391522 -1.70178e-22)
(0.0301128 0.00036362 0)
(0.0299518 0.000335784 3.16962e-24)
(0.0297616 0.000308084 -1.7103e-24)
(0.0295416 0.000280586 -1.19328e-22)
(0.0292919 0.000253365 1.28236e-22)
(0.0290131 0.000226511 4.32067e-24)
(0.0287062 0.000200137 2.33846e-24)
(0.0283724 0.000174384 0)
(0.028013 0.000149419 1.35161e-24)
(0.0276285 0.000125429 0)
(0.0272185 0.000102619 -3.10239e-24)
(0.0267816 8.1204e-05 1.10351e-22)
(0.0263148 6.1403e-05 -1.11389e-22)
(0.0258135 4.34334e-05 0)
(0.0252712 2.75036e-05 -1.37087e-22)
(0.0246797 1.38021e-05 1.44841e-22)
(0.0240289 2.48382e-06 7.86039e-23)
(0.023307 -6.34889e-06 -8.40536e-23)
(0.0225003 -1.26692e-05 9.45241e-23)
(0.0215939 -1.65459e-05 2.93629e-26)
(0.0205706 -1.81641e-05 -1.12177e-22)
(0.01941 -1.78251e-05 0)
(0.0180848 -1.59296e-05 6.94644e-23)
(0.0165536 -1.29421e-05 -1.16467e-22)
(0.0147442 -9.36433e-06 4.41434e-23)
(0.0125089 -5.75534e-06 -3.03227e-23)
(0.00945928 -2.67969e-06 3.86039e-23)
(0.00425266 -3.52952e-07 1.79459e-24)
(0.00647404 -0.000315849 -1.21116e-26)
(0.0126693 -0.000601489 -1.19688e-26)
(0.015852 -0.000752847 3.40159e-26)
(0.0180543 -0.000847274 0)
(0.019747 -0.000906138 -9.39103e-27)
(0.0210955 -0.000937108 1.13812e-22)
(0.022178 -0.00094449 -2.56612e-22)
(0.0230453 -0.000932468 1.37362e-22)
(0.0237399 -0.000905167 1.06217e-25)
(0.024299 -0.000866124 -2.52643e-22)
(0.0247544 -0.000818047 -4.99817e-23)
(0.0251319 -0.000762872 5.36008e-22)
(0.0254515 -0.000701945 -5.71353e-22)
(0.0257285 -0.000636221 -4.22717e-23)
(0.0259742 -0.00056643 2.97381e-22)
(0.0261971 -0.000493196 -6.53955e-25)
(0.0264032 -0.000417131 0)
(0.0265971 -0.000338883 -3.88483e-25)
(0.0267821 -0.000259173 3.9391e-22)
(0.0269605 -0.000178803 3.35637e-23)
(0.0271341 -9.86528e-05 -8.10424e-22)
(0.0273041 -1.96609e-05 4.03514e-22)
(0.0274715 5.72067e-05 8.37094e-25)
(0.0276369 0.000130991 -4.64317e-22)
(0.0278009 0.000200783 4.47866e-22)
(0.0279642 0.000265759 2.82231e-24)
(0.028127 0.00032522 1.92013e-24)
(0.0282898 0.00037862 5.23789e-22)
(0.028453 0.000425585 -1.0539e-21)
(0.0286167 0.00046592 5.31605e-22)
(0.0287809 0.00049961 5.74081e-22)
(0.0289455 0.000526801 1.6498e-23)
(0.02911 0.000547779 -5.92089e-22)
(0.0292735 0.000562938 6.33186e-22)
(0.0294351 0.000572746 -6.29361e-22)
(0.0295932 0.00057771 -5.22857e-24)
(0.029746 0.000578342 0)
(0.0298915 0.000575135 -3.62814e-22)
(0.0300276 0.000568546 3.67981e-22)
(0.030152 0.000558985 4.04392e-22)
(0.0302626 0.000546815 -4.0323e-22)
(0.0303573 0.000532358 3.3285e-24)
(0.0304344 0.000515901 0)
(0.0304923 0.000497709 -4.68518e-22)
(0.03053 0.000478027 -1.4545e-23)
(0.0305463 0.000457089 5.09594e-22)
(0.0305404 0.000435114 -5.57016e-22)
(0.0305115 0.000412307 5.65535e-22)
(0.0304586 0.000388853 9.49998e-24)
(0.0303808 0.000364916 -3.31516e-22)
(0.0302769 0.000340638 3.41374e-22)
(0.0301459 0.000316136 0)
(0.0299865 0.000291506 -2.86281e-26)
(0.029798 0.000266834 3.40478e-24)
(0.0295797 0.0002422 4.70352e-22)
(0.0293316 0.000217689 2.08781e-24)
(0.0290544 0.000193404 -5.57815e-22)
(0.028749 0.00016947 -4.58409e-24)
(0.0284167 0.000146038 -4.93091e-24)
(0.0280583 0.000123285 3.40273e-22)
(0.0276745 0.000101409 -3.58977e-22)
(0.0272649 8.06245e-05 3.07074e-24)
(0.0268277 6.11555e-05 -3.3002e-24)
(0.02636 4.32307e-05 -3.55098e-24)
(0.0258569 2.70762e-05 -2.44456e-22)
(0.025312 1.29078e-05 2.65782e-22)
(0.0247168 9.19402e-07 -4.4509e-24)
(0.0240611 -8.73152e-06 0)
(0.0233332 -1.59447e-05 -3.36489e-22)
(0.0225197 -2.07018e-05 5.52232e-22)
(0.0216058 -2.30907e-05 -2.02973e-22)
(0.0205747 -2.33186e-05 3.41316e-24)
(0.0194066 -2.17117e-05 0)
(0.0180748 -1.86916e-05 -2.0946e-24)
(0.0165385 -1.47404e-05 1.50053e-22)
(0.014726 -1.03747e-05 -1.77367e-22)
(0.0124903 -6.17075e-06 1.75376e-24)
(0.00944399 -2.7079e-06 8.32809e-23)
(0.00424564 -2.25394e-07 -1.12107e-22)
(0.00606786 -0.000537173 -9.96358e-22)
(0.012279 -0.00102052 6.25199e-22)
(0.0155284 -0.00124918 -3.09921e-26)
(0.0177542 -0.00137539 4.14193e-23)
(0.0194436 -0.00144656 1.50723e-22)
(0.0207801 -0.00148035 -1.54394e-22)
(0.0218537 -0.0014845 3.94927e-22)
(0.0227197 -0.00146454 -8.1223e-22)
(0.0234199 -0.00142543 4.10256e-22)
(0.0239894 -0.00137155 0)
(0.0244577 -0.00130646 3.09176e-25)
(0.0248488 -0.00123292 0)
(0.0251821 -0.00115299 0)
(0.0254723 -0.00106817 0)
(0.0257307 -0.000979613 -3.27445e-25)
(0.0259658 -0.000888221 3.41275e-25)
(0.026184 -0.000794762 7.7052e-25)
(0.02639 -0.000699949 -5.60969e-26)
(0.0265872 -0.000604489 8.37437e-22)
(0.026778 -0.000509121 -7.95268e-22)
(0.0269642 -0.000414624 8.83276e-22)
(0.0271471 -0.000321823 -1.75435e-21)
(0.0273275 -0.000231569 -5.89292e-23)
(0.027506 -0.000144722 1.85608e-21)
(0.0276831 -6.21146e-05 -1.90364e-21)
(0.0278591 1.54805e-05 9.50299e-22)
(0.0280344 8.73861e-05 -1.03025e-21)
(0.0282091 0.000153051 2.06894e-21)
(0.0283835 0.000212075 -1.03541e-21)
(0.0285577 0.00026422 2.13085e-24)
(0.0287316 0.000309418 0)
(0.0289049 0.00034776 9.10029e-24)
(0.0290773 0.000379478 0)
(0.029248 0.000404921 -6.3134e-22)
(0.0294158 0.000424525 6.32299e-22)
(0.0295794 0.000438774 5.20173e-24)
(0.0297372 0.000448171 6.99674e-22)
(0.0298871 0.000453215 -1.4388e-21)
(0.0300271 0.000454373 7.35999e-22)
(0.030155 0.000452076 -6.06348e-24)
(0.0302688 0.000446713 0)
(0.0303665 0.000438632 -8.49464e-22)
(0.0304464 0.000428151 1.76495e-21)
(0.0305069 0.00041556 -1.84652e-21)
(0.030547 0.000401133 9.65036e-22)
(0.0305656 0.000385126 -1.02022e-21)
(0.0305619 0.000367784 1.07124e-21)
(0.0305351 0.00034933 0)
(0.0304842 0.000329973 -9.41251e-24)
(0.0304083 0.000309894 0)
(0.0303064 0.000289251 6.88904e-22)
(0.0301773 0.000268179 -7.46098e-22)
(0.0300199 0.000246788 7.89776e-22)
(0.0298333 0.000225177 1.12129e-23)
(0.0296169 0.00020344 -9.14171e-22)
(0.0293709 0.000181673 7.76972e-24)
(0.0290955 0.000159991 1.6789e-23)
(0.0287919 0.000138529 5.83901e-22)
(0.028461 0.00011745 -6.26258e-22)
(0.0281039 9.69403e-05 0)
(0.0277209 7.72085e-05 -7.24741e-22)
(0.0273116 5.84789e-05 -7.36018e-24)
(0.0268742 4.09859e-05 8.28904e-22)
(0.0264055 2.49674e-05 0)
(0.0259006 1.06581e-05 0)
(0.0253529 -1.71902e-06 0)
(0.0247539 -1.19652e-05 8.78637e-24)
(0.0240933 -1.9922e-05 -6.14528e-22)
(0.0233594 -2.5494e-05 6.61991e-22)
(0.022539 -2.86745e-05 -2.8215e-24)
(0.0216174 -2.95707e-05 3.9916e-22)
(0.0205787 -2.84137e-05 -4.33456e-22)
(0.0194032 -2.5553e-05 -3.69238e-24)
(0.018065 -2.14307e-05 2.06404e-24)
(0.0165239 -1.65455e-05 2.34026e-24)
(0.0147088 -1.14247e-05 0)
(0.0124734 -6.6527e-06 -2.19399e-22)
(0.00943098 -2.80738e-06 3.11735e-22)
(0.0042409 -1.17155e-07 -3.4229e-24)
(0.005359 -0.000752354 0)
(0.0114137 -0.00146562 7.46727e-23)
(0.0147366 -0.00179511 -4.88953e-23)
(0.0170365 -0.00196444 0)
(0.0187827 -0.00204984 7.51498e-26)
(0.0201618 -0.00208306 -1.03905e-21)
(0.0212713 -0.00207818 8.85292e-22)
(0.0221717 -0.00204372 0)
(0.0229066 -0.00198632 -1.38656e-21)
(0.0235106 -0.00191148 1.2185e-21)
(0.0240122 -0.00182371 -1.51446e-21)
(0.0244349 -0.00172658 -2.04795e-22)
(0.0247975 -0.00162286 1.40932e-21)
(0.0251147 -0.00151461 -4.0868e-25)
(0.0253979 -0.00140339 1.6667e-21)
(0.0256559 -0.00129039 -3.24191e-21)
(0.0258954 -0.00117653 1.5831e-21)
(0.0261213 -0.0010626 -6.89496e-26)
(0.0263374 -0.000949284 0)
(0.0265464 -0.000837241 0)
(0.0267501 -0.00072713 0)
(0.0269499 -0.000619628 0)
(0.0271468 -0.000515436 1.93005e-21)
(0.0273414 -0.000415266 -1.86399e-21)
(0.027534 -0.000319825 0)
(0.0277251 -0.000229784 -1.02571e-21)
(0.0279148 -0.000145749 9.96821e-22)
(0.0281032 -6.82307e-05 1.07148e-21)
(0.0282906 2.38192e-06 -1.05462e-21)
(0.0284768 6.58422e-05 0)
(0.0286618 0.000122054 0)
(0.0288454 0.000171073 1.18046e-21)
(0.029027 0.000213092 4.12406e-23)
(0.029206 0.000248423 -2.47294e-21)
(0.0293814 0.000277471 1.25286e-21)
(0.0295517 0.000300699 1.3452e-21)
(0.0297155 0.000318602 3.6392e-23)
(0.0298709 0.000331675 4.07156e-23)
(0.0300159 0.000340399 -1.45698e-21)
(0.0301483 0.000345218 0)
(0.0302663 0.000346544 1.61708e-21)
(0.0303679 0.000344748 -1.64755e-21)
(0.0304513 0.000340171 -6.79066e-24)
(0.0305153 0.000333129 7.10209e-24)
(0.0305586 0.000323919 7.4225e-24)
(0.0305801 0.00031282 -1.00575e-21)
(0.0305792 0.000300096 2.10696e-21)
(0.030555 0.000285993 2.86924e-24)
(0.0305067 0.000270735 -1.16856e-21)
(0.0304333 0.000254523 0)
(0.0303338 0.00023753 0)
(0.0302071 0.000219905 -1.43117e-21)
(0.0300521 0.000201775 1.54871e-21)
(0.0298678 0.000183249 -6.58084e-24)
(0.0296538 0.000164433 -7.10004e-24)
(0.0294101 0.000145435 -2.92859e-26)
(0.0291369 0.00012638 -8.25822e-24)
(0.0288352 0.000107415 1.14666e-21)
(0.0285061 8.87109e-05 -1.21103e-21)
(0.0281503 7.04659e-05 5.12304e-24)
(0.0277683 5.28986e-05 -5.50436e-24)
(0.0273594 3.62435e-05 7.59108e-22)
(0.0269217 2.07451e-05 -8.14861e-22)
(0.0264521 6.65107e-06 0)
(0.0259454 -5.79489e-06 0)
(0.0253948 -1.63626e-05 0)
(0.0247919 -2.48485e-05 -1.1066e-21)
(0.0241264 -3.10939e-05 1.20358e-21)
(0.0233865 -3.50092e-05 -6.51293e-22)
(0.0225591 -3.66009e-05 1.41659e-21)
(0.0216301 -3.59953e-05 -7.75036e-22)
(0.0205837 -3.34467e-05 0)
(0.019401 -2.93279e-05 3.63822e-24)
(0.0180567 -2.41017e-05 0)
(0.0165111 -1.82816e-05 -5.87889e-22)
(0.0146938 -1.2404e-05 1.02958e-21)
(0.0124591 -7.05893e-06 -4.29869e-22)
(0.00942118 -2.83442e-06 9.70126e-24)
(0.00423911 5.43716e-08 1.42095e-26)
(0.00428826 -0.000893526 0)
(0.00993423 -0.00182943 2.88748e-21)
(0.0133004 -0.00228688 -1.8749e-21)
(0.0157193 -0.00252357 0)
(0.0175947 -0.00263868 -1.58903e-25)
(0.0190923 -0.00267979 -7.68276e-26)
(0.020306 -0.00266994 1.94305e-21)
(0.0212984 -0.0026226 -1.67721e-21)
(0.0221155 -0.00254732 -1.35591e-25)
(0.0227935 -0.00245138 0)
(0.0233617 -0.00234053 0)
(0.0238441 -0.00221926 1.25787e-25)
(0.0242598 -0.0020911 -1.23624e-25)
(0.0246244 -0.0019587 1.91249e-21)
(0.0249499 -0.00182407 -1.75378e-21)
(0.0252457 -0.00168872 1.91214e-21)
(0.0255192 -0.00155378 1.37403e-22)
(0.0257759 -0.00142011 -1.79397e-21)
(0.0260201 -0.00128841 1.93558e-21)
(0.0262548 -0.00115929 -1.83228e-21)
(0.0264825 -0.0010333 0)
(0.0267048 -0.000910978 1.98549e-21)
(0.0269227 -0.000792868 -1.90175e-21)
(0.0271372 -0.000679529 2.03266e-21)
(0.0273488 -0.000571524 -1.96322e-21)
(0.0275578 -0.000469403 0)
(0.0277644 -0.000373677 -2.12626e-21)
(0.0279688 -0.000284792 2.07564e-21)
(0.0281711 -0.000203101 0)
(0.0283712 -0.000128841 0)
(0.0285691 -6.21159e-05 2.30674e-21)
(0.0287644 -2.8952e-06 -2.28273e-21)
(0.0289569 4.89848e-05 0)
(0.0291457 9.38047e-05 -1.20339e-24)
(0.0293299 0.000131941 -1.2399e-24)
(0.0295083 0.000163836 -2.54635e-24)
(0.0296795 0.000189973 0)
(0.0298415 0.000210847 0)
(0.0299926 0.000226941 2.84222e-24)
(0.0301308 0.000238716 0)
(0.030254 0.000246597 -1.59024e-21)
(0.0303605 0.000250977 1.61994e-21)
(0.0304485 0.000252219 0)
(0.0305168 0.000250659 0)
(0.030564 0.000246615 -1.89334e-21)
(0.0305894 0.000240385 3.92934e-21)
(0.030592 0.000232253 2.34808e-23)
(0.0305712 0.000222483 -2.16989e-21)
(0.0305261 0.000211315 -1.13608e-23)
(0.0304558 0.000198966 -2.48403e-21)
(0.0303593 0.000185625 1.30674e-21)
(0.0302355 0.000171455 1.40496e-21)
(0.0300834 0.000156595 5.98208e-24)
(0.0299021 0.000141168 -1.65176e-21)
(0.0296909 0.000125289 1.77485e-21)
(0.0294499 0.000109077 -7.50359e-24)
(0.0291792 9.26664e-05 0)
(0.0288799 7.62134e-05 -2.23903e-21)
(0.0285527 5.98999e-05 2.39099e-21)
(0.0281985 4.39332e-05 -5.04283e-24)
(0.0278176 2.85423e-05 6.77052e-24)
(0.0274092 1.39726e-05 1.49721e-21)
(0.0269714 4.78987e-07 -1.6016e-21)
(0.0265008 -1.16804e-05 -1.72528e-21)
(0.0259924 -2.22523e-05 -1.21446e-25)
(0.0254391 -3.09988e-05 2.00613e-21)
(0.0248324 -3.77113e-05 -4.25507e-24)
(0.024162 -4.22313e-05 1.14904e-24)
(0.0234161 -4.44759e-05 -1.27994e-21)
(0.0225819 -4.44657e-05 1.39263e-21)
(0.0216455 -4.2347e-05 -7.58153e-22)
(0.0205916 -3.83978e-05 8.27841e-22)
(0.019402 -3.30148e-05 0)
(0.0180518 -2.66814e-05 0)
(0.0165021 -1.99253e-05 3.36412e-24)
(0.0146828 -1.32893e-05 -6.7224e-22)
(0.0124492 -7.36975e-06 4.21095e-22)
(0.00941639 -2.77708e-06 6.03784e-22)
(0.00424171 2.7855e-07 3.3039e-24)
(0.00297244 -0.000885196 -2.43477e-20)
(0.0078529 -0.00196271 0)
(0.0111304 -0.00256144 0)
(0.0136565 -0.00290196 -8.84087e-21)
(0.015716 -0.00308329 7.15266e-21)
(0.0174165 -0.00316211 7.90104e-26)
(0.0188239 -0.00316976 -6.39722e-21)
(0.0199902 -0.00312611 5.53237e-21)
(0.0209595 -0.00304545 -5.63943e-21)
(0.0217693 -0.00293835 -3.93194e-22)
(0.0224516 -0.00281264 9.85637e-21)
(0.0230326 -0.00267419 -9.47086e-21)
(0.0235339 -0.00252747 -3.17973e-22)
(0.0239728 -0.00237586 8.8856e-21)
(0.0243631 -0.00222192 -4.19707e-21)
(0.0247157 -0.00206757 0)
(0.025039 -0.00191423 2.42456e-25)
(0.0253399 -0.00176299 -2.12741e-24)
(0.0256233 -0.00161464 -2.09606e-24)
(0.0258933 -0.00146984 2.07347e-24)
(0.0261528 -0.00132911 0)
(0.0264041 -0.00119292 4.17599e-21)
(0.0266487 -0.00106172 -3.99862e-21)
(0.0268879 -0.00093596 4.20249e-21)
(0.0271223 -0.00081609 1.72405e-22)
(0.0273526 -0.000702556 -1.96123e-21)
(0.0275792 -0.000595782 -4.22941e-21)
(0.0278022 -0.00049615 2.10707e-21)
(0.0280217 -0.000403976 4.29533e-24)
(0.0282379 -0.00031948 0)
(0.0284506 -0.000242772 3.35023e-24)
(0.0286596 -0.000173839 0)
(0.0288645 -0.000112545 -9.3034e-24)
(0.0290648 -5.86385e-05 -2.46939e-21)
(0.0292595 -1.17727e-05 5.01281e-21)
(0.0294475 2.84744e-05 -2.55245e-21)
(0.0296274 6.25713e-05 0)
(0.0297975 9.10071e-05 2.78364e-21)
(0.0299561 0.000114269 -2.83509e-21)
(0.0301011 0.000132825 0)
(0.0302308 0.000147117 3.12881e-21)
(0.0303434 0.000157554 -3.19977e-21)
(0.0304371 0.000164516 0)
(0.0305107 0.000168359 3.53355e-21)
(0.0305629 0.000169417 -3.64688e-21)
(0.030593 0.000168007 1.88581e-24)
(0.0306001 0.000164429 0)
(0.0305834 0.000158962 2.15737e-21)
(0.0305422 0.000151863 -2.26441e-21)
(0.0304758 0.000143364 -2.37176e-24)
(0.030383 0.000133668 -7.57968e-24)
(0.0302628 0.000122951 2.80037e-21)
(0.0301143 0.000111364 -2.98168e-21)
(0.0299364 9.90399e-05 -3.23069e-21)
(0.0297287 8.61054e-05 1.72442e-21)
(0.0294908 7.26888e-05 3.75018e-21)
(0.0292232 5.89327e-05 -2.01075e-21)
(0.0289266 4.50018e-05 0)
(0.0286017 3.10871e-05 2.35124e-21)
(0.0282494 1.74055e-05 -2.52071e-21)
(0.0278698 4.19628e-06 -1.32733e-24)
(0.0274621 -8.28453e-06 -1.42746e-24)
(0.0270243 -1.97708e-05 1.53611e-24)
(0.0265529 -2.99935e-05 -6.59863e-24)
(0.0260428 -3.86892e-05 1.82425e-21)
(0.025487 -4.56114e-05 -1.96964e-21)
(0.0248766 -5.05468e-05 -8.32851e-24)
(0.0242014 -5.33372e-05 -5.64713e-24)
(0.0234497 -5.39068e-05 -4.90146e-24)
(0.0226088 -5.2291e-05 -6.66496e-24)
(0.0216652 -4.86563e-05 1.48805e-21)
(0.0206041 -4.33048e-05 -3.25073e-21)
(0.0194078 -3.66574e-05 1.78691e-21)
(0.018052 -2.92181e-05 0)
(0.0164983 -2.15278e-05 -1.0996e-24)
(0.0146775 -1.41356e-05 -6.58381e-22)
(0.0124452 -7.64396e-06 6.90971e-26)
(0.00941808 -2.69034e-06 1.49597e-21)
(0.00424977 5.21856e-07 -4.14407e-22)
(0.0016635 -0.000697812 4.69768e-20)
(0.00543156 -0.00174547 -3.16856e-20)
(0.00836283 -0.00244727 2.01821e-20)
(0.010854 -0.00291318 3.4338e-22)
(0.0130559 -0.0032093 -1.24597e-20)
(0.0149924 -0.00338116 1.10912e-20)
(0.0166707 -0.00345747 -1.93731e-20)
(0.0181053 -0.00345977 1.74268e-20)
(0.0193198 -0.00340661 -7.76698e-21)
(0.0203438 -0.00331346 0)
(0.0212088 -0.00319244 -6.8358e-21)
(0.0219442 -0.0030525 6.09327e-21)
(0.0225758 -0.00290016 -5.95513e-21)
(0.0231253 -0.00274015 5.37912e-21)
(0.0236097 -0.00257592 0)
(0.0240431 -0.00241004 5.10168e-21)
(0.0244362 -0.00224445 -4.71033e-21)
(0.0247976 -0.00208063 2.17181e-24)
(0.025134 -0.00191967 2.12974e-24)
(0.0254506 -0.00176245 -2.09762e-24)
(0.0257514 -0.0016096 -4.47328e-21)
(0.0260397 -0.00146168 4.24726e-21)
(0.0263177 -0.00131914 -6.57368e-24)
(0.0265871 -0.00118242 -8.55521e-24)
(0.0268492 -0.00105191 -4.41619e-24)
(0.027105 -0.000928027 0)
(0.027355 -0.000811136 4.38257e-21)
(0.0275996 -0.000701586 -4.25316e-21)
(0.0278392 -0.00059967 -2.15691e-23)
(0.0280739 -0.000505605 0)
(0.0283037 -0.000419514 -4.38809e-24)
(0.0285284 -0.000341407 0)
(0.0287478 -0.000271179 4.78546e-21)
(0.0289613 -0.000208614 1.33381e-22)
(0.0291682 -0.000153395 -4.88811e-21)
(0.0293674 -0.000105127 -2.56132e-21)
(0.0295576 -6.33587e-05 2.61923e-21)
(0.0297373 -2.76115e-05 2.75932e-21)
(0.0299048 2.60143e-06 -5.63004e-21)
(0.0300582 2.77546e-05 2.84588e-21)
(0.0301957 4.82996e-05 -1.18569e-23)
(0.0303156 6.46599e-05 -3.17277e-21)
(0.0304162 7.7231e-05 3.26699e-21)
(0.0304963 8.63839e-05 -2.68697e-23)
(0.0305546 9.24686e-05 0)
(0.0305904 9.5817e-05 3.83207e-21)
(0.0306029 9.67429e-05 -3.95712e-21)
(0.0305913 9.55406e-05 3.28182e-23)
(0.0305549 9.24812e-05 0)
(0.0304931 8.78096e-05 -2.38156e-21)
(0.0304048 8.17423e-05 5.07864e-21)
(0.030289 7.44671e-05 -5.40272e-21)
(0.0301447 6.61468e-05 2.9132e-21)
(0.029971 5.69253e-05 0)
(0.0297672 4.69372e-05 -2.64997e-23)
(0.0295332 3.63195e-05 -2.85936e-23)
(0.0292691 2.52222e-05 -7.73051e-24)
(0.0289756 1.38177e-05 -2.13341e-21)
(0.0286535 2.30494e-06 2.29141e-21)
(0.0283034 -9.09036e-06 2.43374e-21)
(0.0279253 -2.01191e-05 5.15402e-24)
(0.0275186 -3.05145e-05 -2.85662e-21)
(0.0270811 -3.99989e-05 3.08042e-21)
(0.0266091 -4.82918e-05 -3.28349e-21)
(0.0260976 -5.51185e-05 0)
(0.0255393 -6.02233e-05 0)
(0.0249255 -6.33873e-05 2.10504e-21)
(0.0242457 -6.44517e-05 -2.26783e-21)
(0.0234885 -6.33478e-05 4.82675e-24)
(0.0226412 -6.01251e-05 -1.56802e-23)
(0.0216907 -5.49711e-05 1.13924e-23)
(0.0206226 -4.82128e-05 0)
(0.0194199 -4.0296e-05 0)
(0.0180587 -3.1746e-05 0)
(0.0165013 -2.31176e-05 1.71834e-23)
(0.0146791 -1.49668e-05 1.27976e-21)
(0.0124484 -7.90251e-06 -1.60344e-21)
(0.00942741 -2.58995e-06 -4.57602e-24)
(0.00426414 7.71961e-07 0)
(0.000685087 -0.000423523 -7.27226e-20)
(0.00323814 -0.0012602 0)
(0.00555448 -0.00195211 0)
(0.00774782 -0.00249145 0)
(0.00988742 -0.00290196 1.89521e-20)
(0.0119385 -0.00320145 -1.60324e-20)
(0.0138501 -0.00339963 0)
(0.0155816 -0.00350604 -1.25687e-20)
(0.0171102 -0.00353397 1.10851e-20)
(0.0184332 -0.00349929 1.09505e-23)
(0.0195643 -0.00341787 0)
(0.0205268 -0.00330348 0)
(0.0213483 -0.00316692 0)
(0.0220552 -0.003016 0)
(0.0226707 -0.00285617 -1.35426e-23)
(0.0232139 -0.00269123 5.50201e-24)
(0.0236999 -0.00252392 -5.73988e-21)
(0.0241406 -0.00235632 -1.55321e-22)
(0.0245453 -0.00219002 5.05993e-21)
(0.0249212 -0.0020263 0)
(0.025274 -0.00186615 0)
(0.025608 -0.0017104 -1.88336e-23)
(0.0259267 -0.00155968 8.71253e-24)
(0.0262326 -0.00141457 4.5859e-21)
(0.0265276 -0.00127555 -8.90812e-21)
(0.0268133 -0.00114308 4.36062e-21)
(0.0270905 -0.00101755 0)
(0.0273602 -0.00089934 -4.50902e-21)
(0.0276228 -0.000788764 4.43265e-21)
(0.0278787 -0.000686066 -4.55034e-21)
(0.0281279 -0.000591403 9.07642e-21)
(0.0283706 -0.000504826 -4.57966e-21)
(0.0286064 -0.000426278 -4.7554e-21)
(0.0288351 -0.000355585 9.54886e-21)
(0.0290559 -0.000292474 -4.88778e-21)
(0.029268 -0.000236583 -1.96591e-23)
(0.0294701 -0.000187489 -5.35448e-21)
(0.0296609 -0.000144726 -1.15016e-22)
(0.0298387 -0.000107817 5.48926e-21)
(0.0300018 -7.62854e-05 4.4884e-23)
(0.0301484 -4.96737e-05 0)
(0.0302769 -2.75482e-05 9.70523e-23)
(0.0303856 -9.50136e-06 0)
(0.0304733 4.85017e-06 -3.37453e-21)
(0.0305388 1.58691e-05 3.51091e-21)
(0.0305813 2.38996e-05 3.64264e-21)
(0.0306 2.92679e-05 -3.88004e-21)
(0.0305944 3.22805e-05 -4.17128e-21)
(0.0305637 3.32208e-05 4.34535e-21)
(0.0305072 3.23457e-05 -4.66188e-21)
(0.0304241 2.98836e-05 9.83984e-21)
(0.0303134 2.60335e-05 -8.00413e-21)
(0.030174 2.09686e-05 2.84777e-21)
(0.0300051 1.48421e-05 3.0841e-21)
(0.0298059 7.79665e-06 -3.28499e-21)
(0.0295763 -2.35727e-08 2.80117e-23)
(0.0293162 -8.46187e-06 0)
(0.0290264 -1.73395e-05 0)
(0.0287074 -2.64503e-05 4.49633e-21)
(0.0283598 -3.55605e-05 -4.86817e-21)
(0.0279836 -4.44117e-05 0)
(0.0275781 -5.27264e-05 0)
(0.027141 -6.02156e-05 0)
(0.0266687 -6.65868e-05 -2.54681e-23)
(0.0261559 -7.15541e-05 0)
(0.0255954 -7.48527e-05 -3.80377e-21)
(0.0249783 -7.62576e-05 6.17647e-21)
(0.0242943 -7.56102e-05 3.60071e-23)
(0.0235317 -7.28485e-05 -2.42355e-21)
(0.0226782 -6.80364e-05 2.06077e-23)
(0.021721 -6.13823e-05 -1.12153e-23)
(0.0206463 -5.32376e-05 -1.58969e-21)
(0.0194372 -4.4072e-05 3.43763e-21)
(0.0180709 -3.44297e-05 -1.90797e-21)
(0.01651 -2.48767e-05 -1.68888e-23)
(0.0146866 -1.59712e-05 9.88934e-24)
(0.0124579 -8.3242e-06 -1.23889e-23)
(0.00944342 -2.62288e-06 3.58074e-23)
(0.00428401 9.52328e-07 0)
(0.000118117 -0.00018027 0)
(0.0016546 -0.000733428 3.61901e-23)
(0.00327349 -0.00130543 0)
(0.00496539 -0.00181698 -1.60607e-23)
(0.00678458 -0.0022696 -1.069e-23)
(0.0086983 -0.00266078 2.24703e-23)
(0.0106438 -0.0029804 0)
(0.0125498 -0.00321854 -7.21024e-24)
(0.0143499 -0.00337162 2.94974e-20)
(0.0159934 -0.00344405 -2.63489e-20)
(0.0174512 -0.00344673 -2.38421e-20)