/*--------------------------------*- C++ -*----------------------------------*\
  =========                 |
  \\      /  F ield         | OpenFOAM: The Open Source CFD Toolbox
   \\    /   O peration     | Website:  https://openfoam.org
    \\  /    A nd           | Version:  7
     \\/     M anipulation  |
\*---------------------------------------------------------------------------*/
FoamFile
{
    version     2.0;
    format      ascii;
    class       volSymmTensorField;
    location    "0";
    object      TauDNS;
}
// * * * * * * * * * * * * * * * * * * * * * * * * * * * * * * * * * * * * * //

dimensions      [0 2 -2 0 0 0 0];

internalField   nonuniform List<symmTensor> 
10981
(
(4.65927e-06 -1.19405e-07 0 6.88768e-08 0 2.40117e-06)
(1.65017e-05 -5.00397e-07 0 3.23659e-07 0 7.66647e-06)
(2.94449e-05 -1.13811e-06 0 8.03423e-07 0 1.1661e-05)
(5.07774e-05 -2.36886e-06 0 1.71727e-06 0 1.7903e-05)
(6.81377e-05 -3.50311e-06 0 2.66492e-06 0 2.21329e-05)
(7.40646e-05 -3.94429e-06 0 3.236e-06 0 2.55164e-05)
(7.31536e-05 -3.92215e-06 0 3.71717e-06 0 2.98841e-05)
(6.2962e-05 -3.32463e-06 0 4.65936e-06 0 3.6997e-05)
(5.36134e-05 -2.63063e-06 0 5.49344e-06 0 4.16542e-05)
(4.45624e-05 -1.88254e-06 0 6.59477e-06 0 4.57928e-05)
(3.74626e-05 -1.30882e-06 0 7.94388e-06 0 4.87611e-05)
(3.21952e-05 -9.66612e-07 0 9.46009e-06 0 5.04426e-05)
(2.86182e-05 -9.53344e-07 0 1.11095e-05 0 5.07236e-05)
(2.62589e-05 -1.22919e-06 0 1.28364e-05 0 4.97762e-05)
(2.47003e-05 -1.71688e-06 0 1.45783e-05 0 4.78555e-05)
(2.37583e-05 -2.36982e-06 0 1.63048e-05 0 4.52588e-05)
(2.32078e-05 -3.09997e-06 0 1.79634e-05 0 4.23522e-05)
(2.29449e-05 -3.86033e-06 0 1.95198e-05 0 3.93188e-05)
(2.2872e-05 -4.62641e-06 0 2.09295e-05 0 3.63316e-05)
(2.29252e-05 -5.38352e-06 0 2.21673e-05 0 3.35064e-05)
(2.30335e-05 -6.10799e-06 0 2.32176e-05 0 3.09539e-05)
(2.31871e-05 -6.78353e-06 0 2.40522e-05 0 2.87001e-05)
(2.34119e-05 -7.40811e-06 0 2.4668e-05 0 2.67698e-05)
(2.36932e-05 -7.97932e-06 0 2.50484e-05 0 2.51739e-05)
(2.39978e-05 -8.48954e-06 0 2.52015e-05 0 2.38481e-05)
(2.42926e-05 -8.91802e-06 0 2.51276e-05 0 2.27692e-05)
(2.45968e-05 -9.25713e-06 0 2.48335e-05 0 2.19075e-05)
(2.4782e-05 -9.41588e-06 0 2.45646e-05 0 2.14882e-05)
(2.50421e-05 -9.61241e-06 0 2.39839e-05 0 2.08768e-05)
(2.51896e-05 -9.72242e-06 0 2.32695e-05 0 2.03012e-05)
(2.51793e-05 -9.75313e-06 0 2.24682e-05 0 1.97399e-05)
(2.50709e-05 -9.71354e-06 0 2.16019e-05 0 1.91603e-05)
(2.48952e-05 -9.59564e-06 0 2.06455e-05 0 1.85422e-05)
(2.47457e-05 -9.48028e-06 0 2.00182e-05 0 1.81611e-05)
(2.44261e-05 -9.23665e-06 0 1.89778e-05 0 1.75027e-05)
(2.39615e-05 -8.92878e-06 0 1.79508e-05 0 1.68366e-05)
(2.33725e-05 -8.56133e-06 0 1.69444e-05 0 1.61691e-05)
(2.26128e-05 -8.13546e-06 0 1.59715e-05 0 1.54101e-05)
(2.20799e-05 -7.84077e-06 0 1.53858e-05 0 1.49186e-05)
(2.11613e-05 -7.32587e-06 0 1.44786e-05 0 1.41539e-05)
(2.01596e-05 -6.77262e-06 0 1.36068e-05 0 1.33722e-05)
(1.91712e-05 -6.21191e-06 0 1.27536e-05 0 1.25708e-05)
(1.85732e-05 -5.86678e-06 0 1.22333e-05 0 1.20725e-05)
(1.75582e-05 -5.32984e-06 0 1.14235e-05 0 1.13206e-05)
(1.65e-05 -4.79835e-06 0 1.06506e-05 0 1.06394e-05)
(1.54789e-05 -4.27571e-06 0 9.91932e-06 0 1.0035e-05)
(1.48611e-05 -3.96726e-06 0 9.50188e-06 0 9.69169e-06)
(1.38996e-05 -3.4771e-06 0 8.87585e-06 0 9.16056e-06)
(1.30212e-05 -2.99399e-06 0 8.30054e-06 0 8.70094e-06)
(1.21907e-05 -2.51466e-06 0 7.75813e-06 0 8.3373e-06)
(1.17098e-05 -2.22867e-06 0 7.44795e-06 0 8.15679e-06)
(1.09964e-05 -1.77192e-06 0 6.96472e-06 0 7.89728e-06)
(1.04088e-05 -1.3461e-06 0 6.50822e-06 0 7.68788e-06)
(1.01142e-05 -1.10578e-06 0 6.25254e-06 0 7.59448e-06)
(9.69316e-06 -7.12269e-07 0 5.85698e-06 0 7.47116e-06)
(9.37897e-06 -3.3551e-07 0 5.51108e-06 0 7.38262e-06)
(9.24438e-06 -1.28344e-07 0 5.3308e-06 0 7.34373e-06)
(9.08764e-06 2.05946e-07 0 5.04251e-06 0 7.30715e-06)
(9.01807e-06 5.05361e-07 0 4.77848e-06 0 7.33507e-06)
(9.01319e-06 6.57103e-07 0 4.63983e-06 0 7.37346e-06)
(9.05445e-06 8.96482e-07 0 4.40776e-06 0 7.4542e-06)
(9.10101e-06 1.0128e-06 0 4.28524e-06 0 7.49791e-06)
(9.22075e-06 1.19395e-06 0 4.06968e-06 0 7.57588e-06)
(9.30199e-06 1.27632e-06 0 3.95252e-06 0 7.62281e-06)
(9.48535e-06 1.40116e-06 0 3.72982e-06 0 7.71755e-06)
(9.60787e-06 1.45577e-06 0 3.60364e-06 0 7.77139e-06)
(9.88838e-06 1.53863e-06 0 3.35055e-06 0 7.86953e-06)
(1.00655e-05 1.57383e-06 0 3.20567e-06 0 7.91335e-06)
(1.04689e-05 1.62609e-06 0 2.90852e-06 0 7.97032e-06)
(1.07282e-05 1.64728e-06 0 2.74e-06 0 7.98471e-06)
(1.13477e-05 1.67859e-06 0 2.39458e-06 0 7.97236e-06)
(1.17515e-05 1.69034e-06 0 2.2032e-06 0 7.93662e-06)
(1.22219e-05 1.69829e-06 0 2.00479e-06 0 7.87398e-06)
(1.27566e-05 1.70141e-06 0 1.80125e-06 0 7.78001e-06)
(1.3962e-05 1.68769e-06 0 1.39907e-06 0 7.48357e-06)
(1.464e-05 1.66183e-06 0 1.19472e-06 0 7.24359e-06)
(1.53129e-05 1.61795e-06 0 9.96518e-07 0 6.93422e-06)
(1.58865e-05 1.54588e-06 0 8.09117e-07 0 6.53812e-06)
(1.6226e-05 1.43681e-06 0 6.35591e-07 0 6.04658e-06)
(4.65424e-06 -1.19077e-07 0 6.86528e-08 0 2.39942e-06)
(1.64783e-05 -4.99367e-07 0 3.23037e-07 0 7.65504e-06)
(2.94744e-05 -1.13775e-06 0 8.03349e-07 0 1.1663e-05)
(5.0763e-05 -2.36349e-06 0 1.71259e-06 0 1.78879e-05)
(6.80749e-05 -3.48936e-06 0 2.65402e-06 0 2.2107e-05)
(7.404e-05 -3.92951e-06 0 3.22547e-06 0 2.5506e-05)
(7.31133e-05 -3.90506e-06 0 3.7087e-06 0 2.99018e-05)
(6.29722e-05 -3.31137e-06 0 4.64563e-06 0 3.69719e-05)
(5.35897e-05 -2.61564e-06 0 5.48258e-06 0 4.16498e-05)
(4.45048e-05 -1.86621e-06 0 6.59058e-06 0 4.58098e-05)
(3.73902e-05 -1.29338e-06 0 7.9483e-06 0 4.87894e-05)
(3.2124e-05 -9.54309e-07 0 9.4734e-06 0 5.04688e-05)
(2.85642e-05 -9.48137e-07 0 1.11316e-05 0 5.07329e-05)
(2.62168e-05 -1.23013e-06 0 1.28648e-05 0 4.97657e-05)
(2.46736e-05 -1.72501e-06 0 1.46112e-05 0 4.78215e-05)
(2.37418e-05 -2.38247e-06 0 1.63394e-05 0 4.52096e-05)
(2.31992e-05 -3.11462e-06 0 1.79968e-05 0 4.22961e-05)
(2.29412e-05 -3.87537e-06 0 1.95504e-05 0 3.92612e-05)
(2.28715e-05 -4.64034e-06 0 2.09543e-05 0 3.62801e-05)
(2.29265e-05 -5.39501e-06 0 2.21852e-05 0 3.34651e-05)
(2.30349e-05 -6.11575e-06 0 2.32283e-05 0 3.09265e-05)
(2.31879e-05 -6.7871e-06 0 2.40566e-05 0 2.8686e-05)
(2.34114e-05 -7.40745e-06 0 2.4668e-05 0 2.67677e-05)
(2.36907e-05 -7.9748e-06 0 2.50463e-05 0 2.51818e-05)
(2.39931e-05 -8.48183e-06 0 2.52005e-05 0 2.38627e-05)
(2.4285e-05 -8.90802e-06 0 2.51311e-05 0 2.27884e-05)
(2.45852e-05 -9.24612e-06 0 2.48453e-05 0 2.1929e-05)
(2.47878e-05 -9.41961e-06 0 2.45524e-05 0 2.14713e-05)
(2.50439e-05 -9.61269e-06 0 2.39759e-05 0 2.08684e-05)
(2.519e-05 -9.72138e-06 0 2.32673e-05 0 2.02982e-05)
(2.51788e-05 -9.75199e-06 0 2.24728e-05 0 1.97419e-05)
(2.50712e-05 -9.7132e-06 0 2.1616e-05 0 1.91687e-05)
(2.48991e-05 -9.59849e-06 0 2.06732e-05 0 1.85573e-05)
(2.47386e-05 -9.47449e-06 0 1.99982e-05 0 1.81481e-05)
(2.4423e-05 -9.23361e-06 0 1.89702e-05 0 1.74969e-05)
(2.39609e-05 -8.9285e-06 0 1.79522e-05 0 1.68361e-05)
(2.33795e-05 -8.56463e-06 0 1.69544e-05 0 1.61768e-05)
(2.26313e-05 -8.14534e-06 0 1.59942e-05 0 1.54283e-05)
(2.20627e-05 -7.83119e-06 0 1.53691e-05 0 1.49036e-05)
(2.11561e-05 -7.32283e-06 0 1.44737e-05 0 1.415e-05)
(2.01613e-05 -6.77398e-06 0 1.36096e-05 0 1.33744e-05)
(1.91836e-05 -6.21956e-06 0 1.27659e-05 0 1.25823e-05)
(1.8547e-05 -5.85171e-06 0 1.22116e-05 0 1.2051e-05)
(1.75478e-05 -5.3245e-06 0 1.1416e-05 0 1.13134e-05)
(1.64996e-05 -4.79849e-06 0 1.06513e-05 0 1.06391e-05)
(1.54917e-05 -4.28189e-06 0 9.92832e-06 0 1.0042e-05)
(1.48324e-05 -3.95315e-06 0 9.48354e-06 0 9.67643e-06)
(1.38895e-05 -3.4722e-06 0 8.8699e-06 0 9.1552e-06)
(1.30233e-05 -2.99542e-06 0 8.30225e-06 0 8.70144e-06)
(1.22069e-05 -2.52418e-06 0 7.76864e-06 0 8.34334e-06)
(1.16929e-05 -2.21871e-06 0 7.43737e-06 0 8.15074e-06)
(1.0993e-05 -1.77015e-06 0 6.96317e-06 0 7.89622e-06)
(1.04153e-05 -1.35188e-06 0 6.51456e-06 0 7.68999e-06)
(1.01007e-05 -1.09466e-06 0 6.24092e-06 0 7.59042e-06)
(9.68982e-06 -7.09837e-07 0 5.85448e-06 0 7.47023e-06)
(9.38213e-06 -3.40797e-07 0 5.5157e-06 0 7.38364e-06)
(9.23845e-06 -1.1907e-07 0 5.32289e-06 0 7.34201e-06)
(9.08675e-06 2.06887e-07 0 5.04176e-06 0 7.30661e-06)
(9.01824e-06 4.99287e-07 0 4.78401e-06 0 7.33354e-06)
(9.01297e-06 6.61439e-07 0 4.63591e-06 0 7.37458e-06)
(9.05342e-06 8.94472e-07 0 4.40995e-06 0 7.45342e-06)
(9.10327e-06 1.01791e-06 0 4.2798e-06 0 7.49985e-06)
(9.22024e-06 1.19373e-06 0 4.07026e-06 0 7.57558e-06)
(9.30631e-06 1.28036e-06 0 3.94654e-06 0 7.62529e-06)
(9.48512e-06 1.40126e-06 0 3.72997e-06 0 7.71751e-06)
(9.614e-06 1.45828e-06 0 3.5976e-06 0 7.77398e-06)
(9.88738e-06 1.53853e-06 0 3.35144e-06 0 7.86938e-06)
(1.0072e-05 1.57506e-06 0 3.20053e-06 0 7.91485e-06)
(1.04644e-05 1.62577e-06 0 2.91162e-06 0 7.97006e-06)
(1.07322e-05 1.64767e-06 0 2.73747e-06 0 7.98498e-06)
(1.13345e-05 1.67819e-06 0 2.40127e-06 0 7.97332e-06)
(1.17467e-05 1.69032e-06 0 2.20529e-06 0 7.93733e-06)
(1.22274e-05 1.69844e-06 0 2.00253e-06 0 7.87331e-06)
(1.27721e-05 1.70149e-06 0 1.79556e-06 0 7.77715e-06)
(1.39478e-05 1.68812e-06 0 1.40333e-06 0 7.48805e-06)
(1.46342e-05 1.66222e-06 0 1.19637e-06 0 7.24619e-06)
(1.53133e-05 1.61795e-06 0 9.96271e-07 0 6.93405e-06)
(1.58905e-05 1.54538e-06 0 8.07708e-07 0 6.53529e-06)
(1.62285e-05 1.43542e-06 0 6.3368e-07 0 6.04064e-06)
(5.30594e-06 -1.83096e-07 0 1.07173e-07 0 2.75101e-06)
(1.74238e-05 -6.79039e-07 0 4.26359e-07 0 8.61566e-06)
(3.68699e-05 -2.09669e-06 0 1.51404e-06 0 1.52004e-05)
(5.16557e-05 -3.28067e-06 0 2.45549e-06 0 1.98677e-05)
(6.84675e-05 -5.17982e-06 0 3.91905e-06 0 2.38035e-05)
(7.61387e-05 -6.18402e-06 0 4.78308e-06 0 2.63381e-05)
(7.83737e-05 -6.65791e-06 0 5.4083e-06 0 2.95615e-05)
(7.32962e-05 -6.59399e-06 0 6.18145e-06 0 3.48157e-05)
(6.57455e-05 -5.99308e-06 0 6.66414e-06 0 3.84786e-05)
(5.66609e-05 -5.08732e-06 0 7.25756e-06 0 4.20877e-05)
(4.79627e-05 -4.12348e-06 0 8.02494e-06 0 4.50955e-05)
(4.05082e-05 -3.24771e-06 0 8.9812e-06 0 4.72034e-05)
(3.47767e-05 -2.6487e-06 0 1.01868e-05 0 4.82281e-05)
(2.90098e-05 -2.29083e-06 0 1.22777e-05 0 4.76674e-05)
(2.65943e-05 -2.41022e-06 0 1.38574e-05 0 4.60918e-05)
(2.50068e-05 -2.75888e-06 0 1.54862e-05 0 4.38137e-05)
(2.40265e-05 -3.27166e-06 0 1.71049e-05 0 4.11026e-05)
(2.36989e-05 -3.58343e-06 0 1.79348e-05 0 3.96024e-05)
(2.33027e-05 -4.22277e-06 0 1.94413e-05 0 3.67038e-05)
(2.31354e-05 -4.8961e-06 0 2.08098e-05 0 3.389e-05)
(2.31055e-05 -5.57449e-06 0 2.2001e-05 0 3.12872e-05)
(2.31511e-05 -6.23471e-06 0 2.29941e-05 0 2.89424e-05)
(2.32864e-05 -6.85591e-06 0 2.37719e-05 0 2.69136e-05)
(2.35167e-05 -7.43097e-06 0 2.43107e-05 0 2.52334e-05)
(2.37779e-05 -7.96062e-06 0 2.46126e-05 0 2.38409e-05)
(2.40396e-05 -8.42578e-06 0 2.46739e-05 0 2.26818e-05)
(2.43185e-05 -8.81209e-06 0 2.45033e-05 0 2.17458e-05)
(2.44852e-05 -8.9887e-06 0 2.43167e-05 0 2.13188e-05)
(2.4757e-05 -9.22717e-06 0 2.38245e-05 0 2.0686e-05)
(2.49246e-05 -9.3773e-06 0 2.31741e-05 0 2.01176e-05)
(2.49231e-05 -9.4513e-06 0 2.24188e-05 0 1.95643e-05)
(2.48122e-05 -9.44794e-06 0 2.15941e-05 0 1.90193e-05)
(2.46375e-05 -9.35968e-06 0 2.06735e-05 0 1.84227e-05)
(2.44998e-05 -9.26916e-06 0 2.01082e-05 0 1.8077e-05)
(2.41866e-05 -9.05116e-06 0 1.90824e-05 0 1.74496e-05)
(2.37615e-05 -8.77904e-06 0 1.80546e-05 0 1.67927e-05)
(2.32249e-05 -8.44582e-06 0 1.70389e-05 0 1.61307e-05)
(2.24891e-05 -8.0422e-06 0 1.60588e-05 0 1.53894e-05)
(2.20073e-05 -7.78369e-06 0 1.55076e-05 0 1.49397e-05)
(2.1112e-05 -7.29274e-06 0 1.45748e-05 0 1.41817e-05)
(2.01302e-05 -6.75703e-06 0 1.3685e-05 0 1.34015e-05)
(1.91294e-05 -6.20375e-06 0 1.28268e-05 0 1.25968e-05)
(1.85658e-05 -5.8836e-06 0 1.23457e-05 0 1.21404e-05)
(1.75533e-05 -5.33553e-06 0 1.15274e-05 0 1.13803e-05)
(1.6501e-05 -4.79962e-06 0 1.07446e-05 0 1.06892e-05)
(1.54669e-05 -4.27429e-06 0 9.99553e-06 0 1.00735e-05)
(1.48871e-05 -3.98505e-06 0 9.59728e-06 0 9.75189e-06)
(1.39055e-05 -3.48844e-06 0 8.9484e-06 0 9.21473e-06)
(1.30234e-05 -3.00201e-06 0 8.35503e-06 0 8.74187e-06)
(1.2199e-05 -2.5208e-06 0 7.79913e-06 0 8.36745e-06)
(1.17494e-05 -2.25521e-06 0 7.50347e-06 0 8.19363e-06)
(1.10102e-05 -1.79032e-06 0 7.00828e-06 0 7.92467e-06)
(1.03947e-05 -1.35292e-06 0 6.54752e-06 0 7.70663e-06)
(1.01074e-05 -1.12471e-06 0 6.30645e-06 0 7.61278e-06)
(9.67127e-06 -7.23323e-07 0 5.8994e-06 0 7.47969e-06)
(9.35565e-06 -3.38342e-07 0 5.5405e-06 0 7.38832e-06)
(9.22918e-06 -1.40931e-07 0 5.36488e-06 0 7.35197e-06)
(9.06141e-06 1.96643e-07 0 5.0667e-06 0 7.31268e-06)
(8.9799e-06 4.983e-07 0 4.79498e-06 0 7.33704e-06)
(8.97481e-06 6.43336e-07 0 4.65917e-06 0 7.37273e-06)
(9.01811e-06 8.85487e-07 0 4.41801e-06 0 7.45524e-06)
(9.0609e-06 9.9676e-07 0 4.29687e-06 0 7.49726e-06)
(9.17401e-06 1.17792e-06 0 4.07357e-06 0 7.57303e-06)
(9.24878e-06 1.25735e-06 0 3.95754e-06 0 7.61631e-06)
(9.42897e-06 1.3839e-06 0 3.72841e-06 0 7.70915e-06)
(9.54769e-06 1.4374e-06 0 3.60333e-06 0 7.76104e-06)
(9.83235e-06 1.52121e-06 0 3.34325e-06 0 7.8606e-06)
(1.00082e-05 1.55584e-06 0 3.19886e-06 0 7.9045e-06)
(1.04247e-05 1.60975e-06 0 2.89417e-06 0 7.96393e-06)
(1.06874e-05 1.63155e-06 0 2.72616e-06 0 7.97822e-06)
(1.13317e-05 1.66514e-06 0 2.37495e-06 0 7.96426e-06)
(1.17454e-05 1.6781e-06 0 2.18474e-06 0 7.92761e-06)
(1.22289e-05 1.68766e-06 0 1.98746e-06 0 7.86434e-06)
(1.27804e-05 1.69275e-06 0 1.78539e-06 0 7.77008e-06)
(1.40386e-05 1.68278e-06 0 1.38135e-06 0 7.46971e-06)
(1.47426e-05 1.65839e-06 0 1.1792e-06 0 7.22691e-06)
(1.54386e-05 1.61547e-06 0 9.83384e-07 0 6.91419e-06)
(1.6042e-05 1.54606e-06 0 7.98042e-07 0 6.52005e-06)
(1.64033e-05 1.43698e-06 0 6.26882e-07 0 6.02328e-06)
(5.51185e-06 -1.7955e-07 0 1.07532e-07 0 2.76562e-06)
(1.78557e-05 -6.51414e-07 0 4.10136e-07 0 8.67688e-06)
(3.7258e-05 -2.07737e-06 0 1.50854e-06 0 1.53334e-05)
(5.84755e-05 -3.91207e-06 0 2.97272e-06 0 2.18467e-05)
(6.89421e-05 -5.29159e-06 0 4.01017e-06 0 2.41078e-05)
(7.85037e-05 -6.67013e-06 0 5.22299e-06 0 2.78414e-05)
(7.9044e-05 -7.03631e-06 0 5.81157e-06 0 3.10981e-05)
(7.47069e-05 -6.89188e-06 0 6.26496e-06 0 3.45367e-05)
(6.70369e-05 -6.27952e-06 0 6.70167e-06 0 3.81511e-05)
(5.38035e-05 -4.91413e-06 0 7.51549e-06 0 4.30849e-05)
(4.52667e-05 -3.90456e-06 0 8.30073e-06 0 4.57275e-05)
(3.829e-05 -3.083e-06 0 9.34163e-06 0 4.74505e-05)
(3.30615e-05 -2.55722e-06 0 1.06067e-05 0 4.80513e-05)
(2.93072e-05 -2.32236e-06 0 1.20412e-05 0 4.75568e-05)
(2.6791e-05 -2.40035e-06 0 1.36211e-05 0 4.60747e-05)
(2.51367e-05 -2.71944e-06 0 1.5253e-05 0 4.3862e-05)
(2.41046e-05 -3.21108e-06 0 1.68759e-05 0 4.1192e-05)
(2.35286e-05 -3.80351e-06 0 1.8433e-05 0 3.83443e-05)
(2.32217e-05 -4.44656e-06 0 1.98868e-05 0 3.55066e-05)
(2.31173e-05 -5.10958e-06 0 2.11788e-05 0 3.28159e-05)
(2.31097e-05 -5.77044e-06 0 2.2288e-05 0 3.03541e-05)
(2.31432e-05 -6.20314e-06 0 2.29282e-05 0 2.884e-05)
(2.32717e-05 -6.81092e-06 0 2.37001e-05 0 2.6855e-05)
(2.34972e-05 -7.37411e-06 0 2.42398e-05 0 2.52071e-05)
(2.37479e-05 -7.89716e-06 0 2.45512e-05 0 2.3836e-05)
(2.40015e-05 -8.35965e-06 0 2.46282e-05 0 2.26861e-05)
(2.42708e-05 -8.74587e-06 0 2.44814e-05 0 2.17554e-05)
(2.45568e-05 -9.04036e-06 0 2.41276e-05 0 2.10314e-05)
(2.47338e-05 -9.18975e-06 0 2.37757e-05 0 2.06313e-05)
(2.48937e-05 -9.33776e-06 0 2.31475e-05 0 2.00808e-05)
(2.48915e-05 -9.41471e-06 0 2.24123e-05 0 1.95411e-05)
(2.47796e-05 -9.41648e-06 0 2.16099e-05 0 1.90125e-05)
(2.46131e-05 -9.33601e-06 0 2.07196e-05 0 1.84328e-05)
(2.4366e-05 -9.17298e-06 0 1.97598e-05 0 1.78476e-05)
(2.41432e-05 -9.01909e-06 0 1.90641e-05 0 1.74235e-05)
(2.37317e-05 -8.75982e-06 0 1.80628e-05 0 1.67832e-05)
(2.32183e-05 -8.43668e-06 0 1.70618e-05 0 1.61353e-05)
(2.25055e-05 -8.04798e-06 0 1.61093e-05 0 1.54182e-05)
(2.19422e-05 -7.74649e-06 0 1.54628e-05 0 1.48931e-05)
(2.10855e-05 -7.27763e-06 0 1.45657e-05 0 1.41689e-05)
(2.01281e-05 -6.75541e-06 0 1.36942e-05 0 1.34056e-05)
(1.91469e-05 -6.21574e-06 0 1.2856e-05 0 1.26179e-05)
(1.81962e-05 -5.6829e-06 0 1.20576e-05 0 1.18652e-05)
(1.75181e-05 -5.31755e-06 0 1.15144e-05 0 1.13629e-05)
(1.64967e-05 -4.7975e-06 0 1.07539e-05 0 1.06929e-05)
(1.54871e-05 -4.2849e-06 0 1.00195e-05 0 1.00898e-05)
(1.45194e-05 -3.80275e-06 0 9.36306e-06 0 9.55768e-06)
(1.38765e-05 -3.47507e-06 0 8.93794e-06 0 9.20585e-06)
(1.30244e-05 -3.00356e-06 0 8.36134e-06 0 8.74498e-06)
(1.22316e-05 -2.53995e-06 0 7.82492e-06 0 8.3837e-06)
(1.17052e-05 -2.22924e-06 0 7.47808e-06 0 8.17984e-06)
(1.1001e-05 -1.78665e-06 0 7.00708e-06 0 7.92442e-06)
(1.04046e-05 -1.36371e-06 0 6.56355e-06 0 7.71299e-06)
(1.00661e-05 -1.09393e-06 0 6.27869e-06 0 7.60235e-06)
(9.65973e-06 -7.16961e-07 0 5.89672e-06 0 7.4783e-06)
(9.35902e-06 -3.48014e-07 0 5.55261e-06 0 7.39086e-06)
(9.21243e-06 -1.15714e-07 0 5.34521e-06 0 7.3487e-06)
(9.05584e-06 1.99386e-07 0 5.06619e-06 0 7.31257e-06)
(8.9764e-06 4.83834e-07 0 4.80957e-06 0 7.3343e-06)
(8.9704e-06 6.53809e-07 0 4.64996e-06 0 7.37595e-06)
(9.01255e-06 8.80453e-07 0 4.42324e-06 0 7.45411e-06)
(9.0632e-06 1.00993e-06 0 4.28111e-06 0 7.50306e-06)
(9.16799e-06 1.17607e-06 0 4.07416e-06 0 7.57252e-06)
(9.30759e-06 1.30957e-06 0 3.86762e-06 0 7.65115e-06)
(9.42285e-06 1.38255e-06 0 3.72724e-06 0 7.70851e-06)
(9.56205e-06 1.44322e-06 0 3.58207e-06 0 7.76853e-06)
(9.82442e-06 1.51892e-06 0 3.34335e-06 0 7.85925e-06)
(1.00254e-05 1.55764e-06 0 3.17914e-06 0 7.90842e-06)
(1.04075e-05 1.60661e-06 0 2.90071e-06 0 7.96209e-06)
(1.07004e-05 1.63092e-06 0 2.71387e-06 0 7.97779e-06)
(1.12845e-05 1.66167e-06 0 2.39537e-06 0 7.96555e-06)
(1.17327e-05 1.67624e-06 0 2.18798e-06 0 7.92734e-06)
(1.22574e-05 1.68668e-06 0 1.97502e-06 0 7.85848e-06)
(1.28532e-05 1.69178e-06 0 1.75938e-06 0 7.75463e-06)
(1.39945e-05 1.68274e-06 0 1.39521e-06 0 7.48136e-06)
(1.47323e-05 1.65813e-06 0 1.18316e-06 0 7.23063e-06)
(1.54578e-05 1.6139e-06 0 9.8007e-07 0 6.90634e-06)
(1.60699e-05 1.54073e-06 0 7.90395e-07 0 6.49571e-06)
(1.64168e-05 1.42792e-06 0 6.17336e-07 0 5.98658e-06)
(4.17021e-06 -4.04954e-07 0 2.16689e-07 0 3.47281e-06)
(1.43699e-05 -1.60244e-06 0 1.00847e-06 0 1.00871e-05)
(2.93987e-05 -3.73389e-06 0 2.62995e-06 0 1.62589e-05)
(4.10577e-05 -5.30065e-06 0 3.87897e-06 0 2.00693e-05)
(5.9563e-05 -7.86378e-06 0 5.96199e-06 0 2.36338e-05)
(7.30113e-05 -9.85004e-06 0 7.72944e-06 0 2.73468e-05)
(7.82008e-05 -1.07615e-05 0 8.6816e-06 0 3.0018e-05)
(7.94168e-05 -1.11549e-05 0 9.34893e-06 0 3.26866e-05)
(7.44704e-05 -1.06254e-05 0 9.88906e-06 0 3.70052e-05)
(6.76169e-05 -9.63874e-06 0 1.00482e-05 0 3.9881e-05)
(5.92317e-05 -8.33605e-06 0 1.01854e-05 0 4.2427e-05)
(5.07746e-05 -6.94946e-06 0 1.04735e-05 0 4.4459e-05)
(4.31731e-05 -5.6525e-06 0 1.09374e-05 0 4.57139e-05)
(3.6921e-05 -4.62638e-06 0 1.16687e-05 0 4.60702e-05)
(3.21311e-05 -3.9407e-06 0 1.26812e-05 0 4.54709e-05)
(2.87144e-05 -3.5948e-06 0 1.39117e-05 0 4.39758e-05)
(2.6438e-05 -3.58753e-06 0 1.53259e-05 0 4.17821e-05)
(2.49813e-05 -3.82121e-06 0 1.68043e-05 0 3.91833e-05)
(2.40775e-05 -4.23716e-06 0 1.82892e-05 0 3.63952e-05)
(2.35792e-05 -4.75246e-06 0 1.96842e-05 0 3.3628e-05)
(2.33557e-05 -5.32931e-06 0 2.09372e-05 0 3.10078e-05)
(2.32795e-05 -5.92176e-06 0 2.20114e-05 0 2.8626e-05)
(2.33232e-05 -6.50664e-06 0 2.28816e-05 0 2.6572e-05)
(2.33961e-05 -6.81438e-06 0 2.32702e-05 0 2.56167e-05)
(2.35805e-05 -7.35307e-06 0 2.37895e-05 0 2.40825e-05)
(2.37994e-05 -7.8446e-06 0 2.40468e-05 0 2.28003e-05)
(2.40385e-05 -8.28075e-06 0 2.40496e-05 0 2.1747e-05)
(2.43046e-05 -8.63353e-06 0 2.38277e-05 0 2.09106e-05)
(2.45492e-05 -8.87984e-06 0 2.3393e-05 0 2.02744e-05)
(2.46491e-05 -8.98465e-06 0 2.30752e-05 0 1.9956e-05)
(2.46835e-05 -9.10791e-06 0 2.23866e-05 0 1.94087e-05)
(2.45866e-05 -9.15455e-06 0 2.16141e-05 0 1.88972e-05)
(2.44227e-05 -9.11026e-06 0 2.07547e-05 0 1.83389e-05)
(2.41507e-05 -8.97072e-06 0 1.98042e-05 0 1.7746e-05)
(2.3966e-05 -8.86005e-06 0 1.92385e-05 0 1.74097e-05)
(2.35773e-05 -8.61923e-06 0 1.82224e-05 0 1.67816e-05)
(2.31056e-05 -8.32989e-06 0 1.72113e-05 0 1.61299e-05)
(2.243e-05 -7.9659e-06 0 1.62272e-05 0 1.54219e-05)
(2.16021e-05 -7.53472e-06 0 1.52702e-05 0 1.46627e-05)
(2.1104e-05 -7.26954e-06 0 1.47383e-05 0 1.42389e-05)
(2.01591e-05 -6.76463e-06 0 1.38269e-05 0 1.34749e-05)
(1.91694e-05 -6.22934e-06 0 1.29577e-05 0 1.26782e-05)
(1.81661e-05 -5.67938e-06 0 1.21211e-05 0 1.18999e-05)
(1.75969e-05 -5.37079e-06 0 1.16649e-05 0 1.14768e-05)
(1.65605e-05 -4.82991e-06 0 1.08834e-05 0 1.07767e-05)
(1.55231e-05 -4.30449e-06 0 1.01268e-05 0 1.01533e-05)
(1.44982e-05 -3.79169e-06 0 9.41995e-06 0 9.5854e-06)
(1.39503e-05 -3.51482e-06 0 9.05773e-06 0 9.29092e-06)
(1.3056e-05 -3.02949e-06 0 8.44789e-06 0 8.80772e-06)
(1.22479e-05 -2.55116e-06 0 7.87633e-06 0 8.41978e-06)
(1.18138e-05 -2.29342e-06 0 7.5803e-06 0 8.24261e-06)
(1.10623e-05 -1.82877e-06 0 7.07431e-06 0 7.96497e-06)
(1.0422e-05 -1.3831e-06 0 6.60912e-06 0 7.74077e-06)
(1.01255e-05 -1.15534e-06 0 6.37263e-06 0 7.64116e-06)
(9.66635e-06 -7.4924e-07 0 5.95982e-06 0 7.49435e-06)
(9.34009e-06 -3.59383e-07 0 5.58991e-06 0 7.39648e-06)
(9.21457e-06 -1.63018e-07 0 5.41196e-06 0 7.35973e-06)
(9.03948e-06 1.76426e-07 0 5.10411e-06 0 7.31973e-06)
(8.94498e-06 4.77889e-07 0 4.82418e-06 0 7.33971e-06)
(8.93642e-06 6.2163e-07 0 4.68653e-06 0 7.37192e-06)
(8.97814e-06 8.6521e-07 0 4.43754e-06 0 7.45194e-06)
(9.01766e-06 9.7464e-07 0 4.31411e-06 0 7.49298e-06)
(9.1234e-06 1.15443e-06 0 4.08362e-06 0 7.5679e-06)
(9.27092e-06 1.299e-06 0 3.85335e-06 0 7.6515e-06)
(9.36866e-06 1.36089e-06 0 3.73119e-06 0 7.69915e-06)
(9.61454e-06 1.45962e-06 0 3.4789e-06 0 7.79813e-06)
(9.76913e-06 1.50029e-06 0 3.34024e-06 0 7.84762e-06)
(9.94543e-06 1.53508e-06 0 3.19429e-06 0 7.89204e-06)
(1.03717e-05 1.59047e-06 0 2.88482e-06 0 7.95484e-06)
(1.06406e-05 1.61331e-06 0 2.71587e-06 0 7.97036e-06)
(1.13087e-05 1.65001e-06 0 2.36116e-06 0 7.95639e-06)
(1.17379e-05 1.66475e-06 0 2.17045e-06 0 7.91876e-06)
(1.22408e-05 1.67636e-06 0 1.97311e-06 0 7.85426e-06)
(1.28112e-05 1.68371e-06 0 1.77173e-06 0 7.75935e-06)
(1.41232e-05 1.67876e-06 0 1.36842e-06 0 7.45512e-06)
(1.48573e-05 1.65643e-06 0 1.16754e-06 0 7.20937e-06)
(1.55859e-05 1.61534e-06 0 9.73324e-07 0 6.89394e-06)
(1.62178e-05 1.54739e-06 0 7.89462e-07 0 6.49905e-06)
(1.66e-05 1.43799e-06 0 6.19917e-07 0 5.99805e-06)
(6.498e-06 -7.23441e-07 0 3.71449e-07 0 5.88335e-06)
(1.8013e-05 -2.38838e-06 0 1.5507e-06 0 1.21407e-05)
(2.90375e-05 -4.10756e-06 0 2.84992e-06 0 1.67517e-05)
(4.56416e-05 -6.53771e-06 0 4.72487e-06 0 2.13332e-05)
(6.4431e-05 -9.09477e-06 0 6.80188e-06 0 2.4637e-05)
(7.3359e-05 -1.04066e-05 0 8.035e-06 0 2.73318e-05)
(8.02822e-05 -1.15868e-05 0 9.33962e-06 0 3.09422e-05)
(8.0747e-05 -1.18058e-05 0 9.92362e-06 0 3.36204e-05)
(7.67436e-05 -1.12433e-05 0 1.01595e-05 0 3.65508e-05)
(6.976e-05 -1.01832e-05 0 1.02214e-05 0 3.94098e-05)
(6.08985e-05 -8.77585e-06 0 1.02559e-05 0 4.19917e-05)
(5.18663e-05 -7.26601e-06 0 1.04475e-05 0 4.40988e-05)
(4.1447e-05 -5.44467e-06 0 1.10252e-05 0 4.56912e-05)
(3.54574e-05 -4.46676e-06 0 1.18248e-05 0 4.58218e-05)
(3.1016e-05 -3.83104e-06 0 1.28791e-05 0 4.49829e-05)
(2.79556e-05 -3.55976e-06 0 1.41581e-05 0 4.32915e-05)
(2.65218e-05 -3.57131e-06 0 1.51217e-05 0 4.17921e-05)
(2.50488e-05 -3.78389e-06 0 1.65959e-05 0 3.9239e-05)
(2.41173e-05 -4.18191e-06 0 1.80775e-05 0 3.64919e-05)
(2.36008e-05 -4.67995e-06 0 1.94731e-05 0 3.37579e-05)
(2.33679e-05 -5.2421e-06 0 2.07313e-05 0 3.11638e-05)
(2.32825e-05 -5.81985e-06 0 2.18136e-05 0 2.87982e-05)
(2.33026e-05 -6.39465e-06 0 2.26996e-05 0 2.67512e-05)
(2.3433e-05 -6.93669e-06 0 2.33725e-05 0 2.50613e-05)
(2.35609e-05 -7.29665e-06 0 2.37107e-05 0 2.40609e-05)
(2.37705e-05 -7.77736e-06 0 2.39813e-05 0 2.28035e-05)
(2.39984e-05 -8.21259e-06 0 2.40042e-05 0 2.17599e-05)
(2.4257e-05 -8.56932e-06 0 2.38132e-05 0 2.09207e-05)
(2.44983e-05 -8.81773e-06 0 2.34154e-05 0 2.0294e-05)
(2.46501e-05 -8.98574e-06 0 2.28514e-05 0 1.97481e-05)
(2.46542e-05 -9.06853e-06 0 2.23733e-05 0 1.93808e-05)
(2.45626e-05 -9.12076e-06 0 2.1626e-05 0 1.88888e-05)
(2.44056e-05 -9.08512e-06 0 2.07928e-05 0 1.83483e-05)
(2.41422e-05 -8.95715e-06 0 1.98833e-05 0 1.77735e-05)
(2.39162e-05 -8.82377e-06 0 1.92025e-05 0 1.73723e-05)
(2.35519e-05 -8.59562e-06 0 1.82324e-05 0 1.67739e-05)
(2.31032e-05 -8.32182e-06 0 1.7244e-05 0 1.61377e-05)
(2.24489e-05 -7.97084e-06 0 1.62787e-05 0 1.54528e-05)
(2.16646e-05 -7.56315e-06 0 1.53626e-05 0 1.47257e-05)
(2.10718e-05 -7.25061e-06 0 1.4729e-05 0 1.42206e-05)
(2.01674e-05 -6.76811e-06 0 1.38446e-05 0 1.34886e-05)
(1.91942e-05 -6.24375e-06 0 1.29888e-05 0 1.27028e-05)
(1.82291e-05 -5.71723e-06 0 1.21871e-05 0 1.19584e-05)
(1.75551e-05 -5.35e-06 0 1.16447e-05 0 1.14545e-05)
(1.65642e-05 -4.83135e-06 0 1.09002e-05 0 1.07841e-05)
(1.5547e-05 -4.31705e-06 0 1.01561e-05 0 1.01726e-05)
(1.45736e-05 -3.82858e-06 0 9.47947e-06 0 9.63095e-06)
(1.39149e-05 -3.49774e-06 0 9.04631e-06 0 9.28011e-06)
(1.30574e-05 -3.03401e-06 0 8.45959e-06 0 8.81461e-06)
(1.22807e-05 -2.56994e-06 0 7.90264e-06 0 8.43667e-06)
(1.17562e-05 -2.25858e-06 0 7.54502e-06 0 8.2231e-06)
(1.10572e-05 -1.82715e-06 0 7.07564e-06 0 7.96602e-06)
(1.0434e-05 -1.3937e-06 0 6.62433e-06 0 7.74863e-06)
(9.94283e-06 -1.00788e-06 0 6.22614e-06 0 7.58386e-06)
(9.65382e-06 -7.44031e-07 0 5.9588e-06 0 7.49256e-06)
(9.3405e-06 -3.69023e-07 0 5.60183e-06 0 7.39786e-06)
(9.19068e-06 -1.27985e-07 0 5.38452e-06 0 7.35454e-06)
(9.03409e-06 1.78466e-07 0 5.10449e-06 0 7.31934e-06)
(8.94056e-06 4.63248e-07 0 4.83929e-06 0 7.33723e-06)
(8.931e-06 6.34513e-07 0 4.67495e-06 0 7.37576e-06)
(8.97155e-06 8.61424e-07 0 4.44226e-06 0 7.45096e-06)
(9.02101e-06 9.92901e-07 0 4.29103e-06 0 7.50047e-06)
(9.11622e-06 1.15257e-06 0 4.08404e-06 0 7.5676e-06)
(9.2461e-06 1.28288e-06 0 3.8775e-06 0 7.64155e-06)
(9.3602e-06 1.3594e-06 0 3.72989e-06 0 7.69816e-06)
(9.57665e-06 1.44772e-06 0 3.50655e-06 0 7.78587e-06)
(9.75936e-06 1.49814e-06 0 3.33995e-06 0 7.84628e-06)
(9.97399e-06 1.5386e-06 0 3.16423e-06 0 7.89832e-06)
(1.03512e-05 1.58701e-06 0 2.89137e-06 0 7.95331e-06)
(1.06568e-05 1.61275e-06 0 2.70025e-06 0 7.97066e-06)
(1.12343e-05 1.64502e-06 0 2.39296e-06 0 7.9598e-06)
(1.17214e-05 1.6628e-06 0 2.17335e-06 0 7.92015e-06)
(1.22811e-05 1.67576e-06 0 1.95575e-06 0 7.84789e-06)
(1.29523e-05 1.68345e-06 0 1.72447e-06 0 7.7319e-06)
(1.40489e-05 1.67981e-06 0 1.38998e-06 0 7.47833e-06)
(1.48506e-05 1.65785e-06 0 1.17159e-06 0 7.21821e-06)
(1.56234e-05 1.61471e-06 0 9.66822e-07 0 6.88504e-06)
(1.62883e-05 1.5428e-06 0 7.7498e-07 0 6.468e-06)
(1.66519e-05 1.42322e-06 0 6.00628e-07 0 5.93229e-06)
(2.19062e-06 -6.09623e-07 0 4.41664e-07 0 3.28171e-06)
(1.2757e-05 -1.83874e-06 0 1.20413e-06 0 1.00619e-05)
(1.6151e-05 -4.74763e-06 0 3.80421e-06 0 1.50915e-05)
(2.3237e-05 -6.27917e-06 0 5.4164e-06 0 1.83459e-05)
(3.72326e-05 -8.72698e-06 0 8.07368e-06 0 2.20357e-05)
(5.29492e-05 -1.15648e-05 0 1.06174e-05 0 2.53905e-05)
(6.31675e-05 -1.33718e-05 0 1.21629e-05 0 2.7757e-05)
(7.48669e-05 -1.54535e-05 0 1.3978e-05 0 3.13293e-05)
(7.8491e-05 -1.6013e-05 0 1.46586e-05 0 3.37976e-05)
(7.86099e-05 -1.5848e-05 0 1.48946e-05 0 3.63527e-05)
(7.5155e-05 -1.4956e-05 0 1.47756e-05 0 3.88617e-05)
(6.87161e-05 -1.34632e-05 0 1.44185e-05 0 4.1147e-05)
(5.64373e-05 -1.06429e-05 0 1.37784e-05 0 4.36024e-05)
(4.80379e-05 -8.71275e-06 0 1.35329e-05 0 4.44469e-05)
(4.06357e-05 -7.02563e-06 0 1.35925e-05 0 4.44124e-05)
(3.4779e-05 -5.76388e-06 0 1.40386e-05 0 4.34883e-05)
(3.04653e-05 -4.9524e-06 0 1.48417e-05 0 4.17957e-05)
(2.87422e-05 -4.68732e-06 0 1.53847e-05 0 4.06535e-05)
(2.64469e-05 -4.52423e-06 0 1.65884e-05 0 3.81051e-05)
(2.49931e-05 -4.65105e-06 0 1.7897e-05 0 3.5337e-05)
(2.41478e-05 -4.98113e-06 0 1.9205e-05 0 3.25471e-05)
(2.36897e-05 -5.43424e-06 0 2.04204e-05 0 2.99148e-05)
(2.34943e-05 -5.94947e-06 0 2.14778e-05 0 2.75705e-05)
(2.34724e-05 -6.4825e-06 0 2.2342e-05 0 2.55807e-05)
(2.35125e-05 -6.77418e-06 0 2.27313e-05 0 2.46558e-05)
(2.36541e-05 -7.27216e-06 0 2.32246e-05 0 2.31785e-05)
(2.3835e-05 -7.73472e-06 0 2.34494e-05 0 2.19685e-05)
(2.4052e-05 -8.14221e-06 0 2.34274e-05 0 2.09888e-05)
(2.42799e-05 -8.45581e-06 0 2.31755e-05 0 2.02205e-05)
(2.44492e-05 -8.67171e-06 0 2.27061e-05 0 1.96004e-05)
(2.4482e-05 -8.76406e-06 0 2.23638e-05 0 1.92966e-05)
(2.44183e-05 -8.863e-06 0 2.1654e-05 0 1.87932e-05)
(2.4282e-05 -8.87166e-06 0 2.08544e-05 0 1.82899e-05)
(2.40281e-05 -8.78627e-06 0 1.99654e-05 0 1.77183e-05)
(2.38321e-05 -8.69746e-06 0 1.9429e-05 0 1.73941e-05)
(2.3446e-05 -8.4793e-06 0 1.84355e-05 0 1.6801e-05)
(2.30271e-05 -8.22154e-06 0 1.74313e-05 0 1.61606e-05)
(2.24341e-05 -7.90627e-06 0 1.64445e-05 0 1.54905e-05)
(2.16415e-05 -7.5138e-06 0 1.54875e-05 0 1.47623e-05)
(2.11522e-05 -7.26527e-06 0 1.49572e-05 0 1.43364e-05)
(2.02432e-05 -6.78988e-06 0 1.40311e-05 0 1.35795e-05)
(1.92782e-05 -6.28054e-06 0 1.31389e-05 0 1.27961e-05)
(1.82724e-05 -5.74273e-06 0 1.22879e-05 0 1.20301e-05)
(1.77082e-05 -5.43741e-06 0 1.18284e-05 0 1.16092e-05)
(1.66826e-05 -4.89252e-06 0 1.10443e-05 0 1.08949e-05)
(1.56439e-05 -4.36389e-06 0 1.02898e-05 0 1.02623e-05)
(1.46105e-05 -3.84434e-06 0 9.56619e-06 0 9.68266e-06)
(1.40543e-05 -3.56307e-06 0 9.19492e-06 0 9.38457e-06)
(1.31278e-05 -3.07315e-06 0 8.57069e-06 0 8.89292e-06)
(1.23142e-05 -2.59778e-06 0 7.98384e-06 0 8.48794e-06)
(1.18937e-05 -2.34366e-06 0 7.68084e-06 0 8.30291e-06)
(1.11472e-05 -1.88201e-06 0 7.15916e-06 0 8.01328e-06)
(1.04875e-05 -1.43279e-06 0 6.68403e-06 0 7.78239e-06)
(9.93566e-06 -1.00603e-06 0 6.24882e-06 0 7.59669e-06)
(9.69119e-06 -7.88124e-07 0 6.03067e-06 0 7.5172e-06)
(9.34086e-06 -3.94847e-07 0 5.65141e-06 0 7.4086e-06)
(9.20664e-06 -1.97549e-07 0 5.46909e-06 0 7.36803e-06)
(9.02045e-06 1.45832e-07 0 5.1518e-06 0 7.32446e-06)
(8.91734e-06 4.48983e-07 0 4.86248e-06 0 7.34174e-06)
(8.90483e-06 5.92598e-07 0 4.7208e-06 0 7.37134e-06)
(8.94041e-06 8.38061e-07 0 4.46381e-06 0 7.44592e-06)
(8.97671e-06 9.47593e-07 0 4.33721e-06 0 7.48511e-06)
(9.07549e-06 1.12762e-06 0 4.0996e-06 0 7.55955e-06)
(9.21756e-06 1.27263e-06 0 3.86303e-06 0 7.64241e-06)
(9.31307e-06 1.3351e-06 0 3.73843e-06 0 7.68889e-06)
(9.55472e-06 1.43622e-06 0 3.48201e-06 0 7.78493e-06)