/*--------------------------------*- C++ -*----------------------------------*\
  =========                 |
  \\      /  F ield         | OpenFOAM: The Open Source CFD Toolbox
   \\    /   O peration     | Website:  https://openfoam.org
    \\  /    A nd           | Version:  7
     \\/     M anipulation  |
\*---------------------------------------------------------------------------*/
FoamFile
{
    version     2.0;
    format      ascii;
    class       volVectorField;
    location    "0";
    object      UDNS;
}
// * * * * * * * * * * * * * * * * * * * * * * * * * * * * * * * * * * * * * //

dimensions      [0 1 -1 0 0 0 0];

internalField   nonuniform List<vector> 
10981
(
(0.000469516 4.10019e-06 -2.78102e-06)
(0.00179474 1.45871e-05 -1.02639e-05)
(0.00351561 2.70494e-05 -1.91621e-05)
(0.00672944 7.29326e-05 -3.63245e-05)
(0.0112575 0.000184392 -6.57814e-05)
(0.0144861 0.000304087 -8.82726e-05)
(0.0177814 0.000501439 -0.000111429)
(0.0220915 0.000861973 -0.000141033)
(0.0243419 0.00110662 -0.000157975)
(0.0259518 0.00133344 -0.000172366)
(0.0269918 0.00152282 -0.000182509)
(0.0276379 0.00167579 -0.000186891)
(0.0279929 0.00178952 -0.000185258)
(0.0281598 0.00187519 -0.000179691)
(0.0282217 0.00194271 -0.000172355)
(0.0282154 0.00199298 -0.000164458)
(0.0281744 0.00202918 -0.000156955)
(0.0281205 0.0020621 -0.000149839)
(0.0280575 0.00208606 -0.000141343)
(0.0279917 0.00210214 -0.000130556)
(0.0279251 0.00210941 -0.000116687)
(0.0278679 0.00211152 -9.8638e-05)
(0.0278167 0.00210459 -7.51247e-05)
(0.027775 0.0020882 -5.01386e-05)
(0.0277501 0.00206541 -2.98667e-05)
(0.0277386 0.00203432 -1.33578e-05)
(0.0277462 0.00199658 5.72908e-07)
(0.0277594 0.00197105 7.93556e-06)
(0.0277987 0.00192373 1.74672e-05)
(0.0278647 0.00187215 2.13171e-05)
(0.0279595 0.00181642 1.84239e-05)
(0.0280768 0.00175678 1.54455e-05)
(0.028217 0.0016945 2.06354e-05)
(0.0283131 0.00165525 2.36302e-05)
(0.0284809 0.00159037 2.33248e-05)
(0.0286642 0.00152517 2.46852e-05)
(0.0288593 0.00146023 3.46748e-05)
(0.0290656 0.00139608 4.96969e-05)
(0.0291977 0.00135672 5.64548e-05)
(0.0294129 0.0012953 6.58594e-05)
(0.029625 0.00123527 7.48723e-05)
(0.0298289 0.00117516 7.97148e-05)
(0.0299471 0.0011376 8.01956e-05)
(0.0301243 0.0010776 7.90089e-05)
(0.0302831 0.00101886 7.59726e-05)
(0.0304224 0.000961102 6.93352e-05)
(0.0305001 0.000925704 6.61002e-05)
(0.0306077 0.000869641 6.79925e-05)
(0.0306893 0.000815321 7.31027e-05)
(0.0307427 0.000762905 8.13425e-05)
(0.0307598 0.000732212 8.55312e-05)
(0.0307627 0.000682582 8.68819e-05)
(0.0307331 0.000633613 8.29137e-05)
(0.0306996 0.00060523 8.05537e-05)
(0.0306153 0.000558882 7.7364e-05)
(0.0304951 0.000514424 7.48412e-05)
(0.0304086 0.000489487 7.4241e-05)
(0.0302324 0.0004475 7.40719e-05)
(0.0300263 0.000406532 7.30687e-05)
(0.0298977 0.00038397 7.22882e-05)
(0.0296482 0.000344923 7.02752e-05)
(0.0294994 0.00032389 6.77626e-05)
(0.0292142 0.000286757 6.20328e-05)
(0.0290512 0.000266914 5.92102e-05)
(0.0287359 0.000231587 5.46806e-05)
(0.0285577 0.000213189 5.22861e-05)
(0.0282032 0.000180066 4.7481e-05)
(0.0280022 0.000163208 4.49569e-05)
(0.0275874 0.00013286 4.09036e-05)
(0.0273462 0.000117717 3.92112e-05)
(0.0268224 9.04017e-05 3.60682e-05)
(0.0265043 7.71946e-05 3.43055e-05)
(0.0261434 6.47488e-05 3.25767e-05)
(0.0257312 5.3088e-05 3.10215e-05)
(0.0247374 3.29179e-05 2.87815e-05)
(0.0240751 2.40815e-05 2.80755e-05)
(0.0232889 1.63602e-05 2.75846e-05)
(0.0223313 9.87703e-06 2.7145e-05)
(0.0211586 4.71588e-06 2.65888e-05)
(0.000469697 4.18313e-06 -2.78426e-06)
(0.00179481 1.48377e-05 -1.02701e-05)
(0.00352389 2.75887e-05 -1.92173e-05)
(0.00673453 7.4364e-05 -3.63779e-05)
(0.0112512 0.000186295 -6.5753e-05)
(0.0144945 0.000306894 -8.83373e-05)
(0.0178076 0.000505865 -0.00011159)
(0.0220854 0.000864376 -0.000140943)
(0.0243459 0.0011102 -0.000157935)
(0.025961 0.00133802 -0.000172379)
(0.0270023 0.00152786 -0.000182559)
(0.027647 0.0016808 -0.000186921)
(0.0279988 0.00179392 -0.000185216)
(0.0281634 0.00187905 -0.000179592)
(0.0282232 0.0019459 -0.000172224)
(0.0282154 0.0019954 -0.000164311)
(0.0281738 0.00203105 -0.000156821)
(0.0281196 0.00206355 -0.000149705)
(0.0280563 0.00208682 -0.000141181)
(0.0279907 0.00210246 -0.000130386)
(0.0279244 0.00210933 -0.00011653)
(0.0278676 0.00211116 -9.85494e-05)
(0.0278167 0.00210399 -7.51489e-05)
(0.0277751 0.00208733 -5.02562e-05)
(0.0277505 0.00206461 -3.01207e-05)
(0.0277387 0.00203356 -1.36933e-05)
(0.0277459 0.00199614 1.45594e-07)
(0.0277602 0.00196839 8.19598e-06)
(0.0277995 0.00192154 1.75806e-05)
(0.027865 0.00187051 2.14017e-05)
(0.0279593 0.00181526 1.84666e-05)
(0.0280754 0.00175598 1.53299e-05)
(0.0282136 0.00169438 2.04776e-05)
(0.0283169 0.00165224 2.37207e-05)
(0.0284828 0.00158843 2.32952e-05)
(0.0286646 0.00152399 2.45892e-05)
(0.028858 0.00145946 3.44364e-05)
(0.0290617 0.00139605 4.94365e-05)
(0.0292024 0.00135416 5.66103e-05)
(0.0294148 0.0012939 6.58845e-05)
(0.029625 0.00123454 7.49078e-05)
(0.0298271 0.00117493 7.97398e-05)
(0.029953 0.0011349 8.01966e-05)
(0.0301269 0.00107614 7.89828e-05)
(0.0302838 0.00101824 7.60289e-05)
(0.0304216 0.000961131 6.94335e-05)
(0.0305044 0.000923354 6.59337e-05)
(0.0306095 0.000868556 6.80659e-05)
(0.0306899 0.000815032 7.30077e-05)
(0.0307428 0.000763434 8.11969e-05)
(0.030761 0.000730729 8.56871e-05)
(0.0307634 0.000682126 8.69294e-05)
(0.0307345 0.00063402 8.29595e-05)
(0.0306984 0.000603643 8.0452e-05)
(0.0306153 0.00055841 7.73429e-05)
(0.0304978 0.000514904 7.48468e-05)
(0.0304049 0.000488228 7.42232e-05)
(0.0302324 0.000447316 7.40779e-05)
(0.0300315 0.000407356 7.31064e-05)
(0.0298942 0.000383283 7.22609e-05)
(0.029651 0.000345283 7.03414e-05)
(0.0294926 0.000322931 6.76298e-05)
(0.029215 0.000286862 6.20417e-05)
(0.0290428 0.000265915 5.90701e-05)
(0.028736 0.000231629 5.46821e-05)
(0.028549 0.000212349 5.21717e-05)
(0.0282041 0.000180206 4.74942e-05)
(0.0279947 0.000162661 4.48687e-05)
(0.0275914 0.000133193 4.09339e-05)
(0.0273421 0.000117539 3.91884e-05)
(0.0268326 9.09299e-05 3.6133e-05)
(0.0265074 7.73748e-05 3.43258e-05)
(0.0261387 6.46583e-05 3.25574e-05)
(0.0257186 5.28143e-05 3.09807e-05)
(0.0247494 3.3151e-05 2.87972e-05)
(0.0240808 2.4189e-05 2.80787e-05)
(0.0232875 1.6386e-05 2.75819e-05)
(0.0223236 9.86328e-06 2.71396e-05)
(0.0211438 4.69198e-06 2.65805e-05)
(0.0004188 -5.43968e-06 -2.44276e-06)
(0.00147721 -2.1536e-05 -8.28337e-06)
(0.00383203 -7.34999e-05 -1.93833e-05)
(0.00580722 -0.000129256 -2.89923e-05)
(0.00963057 -0.000155633 -5.39741e-05)
(0.0124872 -0.000135672 -7.48118e-05)
(0.0154176 -6.3849e-05 -9.82755e-05)
(0.0195538 0.000120916 -0.000130991)
(0.0219619 0.000289826 -0.000149929)
(0.0239305 0.000481252 -0.00016571)
(0.0254202 0.000676785 -0.000177944)
(0.0264799 0.000854743 -0.00018565)
(0.0271632 0.00101267 -0.000187018)
(0.0277121 0.00119852 -0.000179867)
(0.0278788 0.00129873 -0.00017198)
(0.0279484 0.00137796 -0.000163506)
(0.0279635 0.0014464 -0.00015554)
(0.0279594 0.0014814 -0.00015154)
(0.0279367 0.00153574 -0.00014325)
(0.0279052 0.00158225 -0.000133259)
(0.0278661 0.00161821 -0.000120662)
(0.02783 0.00164768 -0.0001042)
(0.0278003 0.00166936 -8.22359e-05)
(0.0277809 0.00168362 -5.69393e-05)
(0.0277721 0.00168816 -3.49883e-05)
(0.0277743 0.00168367 -1.91133e-05)
(0.0277935 0.00167174 -5.17109e-06)
(0.0278115 0.00166362 3.16555e-06)
(0.027858 0.00163962 1.56411e-05)
(0.0279283 0.0016101 2.18348e-05)
(0.0280282 0.00157506 2.15292e-05)
(0.0281516 0.00153492 1.80072e-05)
(0.0282944 0.00149055 2.03658e-05)
(0.0283853 0.00146512 2.39199e-05)
(0.0285555 0.00141553 2.6064e-05)
(0.0287402 0.00136345 2.57689e-05)
(0.0289368 0.00131014 3.2522e-05)
(0.0291441 0.00125692 4.65934e-05)
(0.0292662 0.00122694 5.39132e-05)
(0.0294826 0.00117404 6.4716e-05)
(0.0296967 0.00112187 7.43311e-05)
(0.0299046 0.00106956 7.9937e-05)
(0.0300167 0.00103971 8.00833e-05)
(0.0301987 0.000986579 7.80396e-05)
(0.0303605 0.000933708 7.50682e-05)
(0.0305034 0.000881275 6.88716e-05)
(0.0305769 0.000851838 6.5703e-05)
(0.0306881 0.00080025 6.72521e-05)
(0.030772 0.00074968 7.25046e-05)
(0.0308266 0.000700822 8.08579e-05)
(0.0308432 0.000674513 8.53418e-05)
(0.0308488 0.000628247 8.76598e-05)
(0.0308218 0.000582786 8.31304e-05)
(0.0307916 0.000558207 8.05824e-05)
(0.0307084 0.000514545 7.73066e-05)
(0.0305881 0.000472557 7.48717e-05)
(0.0305071 0.000450556 7.42924e-05)
(0.0303315 0.000410773 7.44215e-05)
(0.0301256 0.000371978 7.363e-05)
(0.0300041 0.000351786 7.27659e-05)
(0.0297544 0.0003147 7.07112e-05)
(0.0296126 0.000295646 6.8392e-05)
(0.0293275 0.000260199 6.27945e-05)
(0.029171 0.000242176 6.01179e-05)
(0.0288553 0.000208517 5.53316e-05)
(0.0286826 0.000191633 5.28426e-05)
(0.0283268 0.000160091 4.7691e-05)
(0.0281306 0.000144521 4.50203e-05)
(0.0277129 0.000115712 4.05479e-05)
(0.0274756 0.000101739 3.87244e-05)
(0.0269463 7.6009e-05 3.54472e-05)
(0.0266303 6.38609e-05 3.37698e-05)
(0.0262703 5.24593e-05 3.21595e-05)
(0.0258584 4.18482e-05 3.07373e-05)
(0.0248511 2.33837e-05 2.87121e-05)
(0.0241826 1.55896e-05 2.81785e-05)
(0.023388 8.86706e-06 2.7845e-05)
(0.0224314 3.3831e-06 2.74836e-05)
(0.0212428 -7.45757e-07 2.6871e-05)
(0.000442234 -7.65315e-06 -2.39466e-06)
(0.00150273 -2.66708e-05 -7.95108e-06)
(0.00381285 -8.61375e-05 -1.84674e-05)
(0.00687696 -0.00017841 -3.41577e-05)
(0.00949705 -0.000201621 -5.20612e-05)
(0.0136492 -0.000173375 -8.37229e-05)
(0.0165528 -9.99091e-05 -0.000108144)
(0.019314 2.52295e-05 -0.000130465)
(0.0217955 0.000190489 -0.000150209)
(0.0245167 0.000466773 -0.000171814)
(0.0258468 0.000659668 -0.000182187)
(0.0267569 0.000833423 -0.000187246)
(0.0273351 0.000988356 -0.000186067)
(0.0276772 0.00111537 -0.000180341)
(0.0278546 0.00121973 -0.000172342)
(0.0279308 0.0013027 -0.000163798)
(0.0279509 0.00137492 -0.000155792)
(0.027941 0.00143791 -0.000148115)
(0.0279169 0.00149121 -0.000139445)
(0.0278849 0.00153615 -0.000128824)
(0.0278477 0.00157087 -0.000115287)
(0.0278269 0.0015929 -0.000103729)
(0.0278004 0.00161743 -8.21415e-05)
(0.0277846 0.00163523 -5.72813e-05)
(0.0277768 0.00164231 -3.54623e-05)
(0.0277803 0.00164132 -2.01078e-05)
(0.0277999 0.00163313 -6.47276e-06)
(0.0278356 0.00161702 8.18606e-06)
(0.02787 0.00160272 1.60189e-05)
(0.0279396 0.00157665 2.19989e-05)
(0.0280383 0.00154493 2.21622e-05)
(0.02816 0.00150797 1.83119e-05)
(0.0282986 0.00146707 1.97692e-05)
(0.0284547 0.00142374 2.5679e-05)
(0.0285714 0.00139155 2.65337e-05)
(0.0287519 0.00134256 2.56827e-05)
(0.0289451 0.00129171 3.18574e-05)
(0.0291462 0.00124144 4.56362e-05)
(0.0292895 0.00120682 5.4392e-05)
(0.029497 0.00115715 6.48718e-05)
(0.0297066 0.00110737 7.44172e-05)
(0.0299103 0.00105736 8.00098e-05)
(0.0300952 0.00100789 7.94281e-05)
(0.0302146 0.000973169 7.78117e-05)
(0.0303717 0.00092274 7.50064e-05)
(0.0305113 0.000872332 6.89834e-05)
(0.0306313 0.000823531 6.51003e-05)
(0.030702 0.000789892 6.72363e-05)
(0.0307831 0.000741508 7.23392e-05)
(0.030836 0.000694982 8.04613e-05)
(0.0308552 0.000664397 8.57581e-05)
(0.03086 0.000621 8.78854e-05)
(0.0308345 0.00057774 8.32023e-05)
(0.0307978 0.000548908 8.02603e-05)
(0.0307184 0.000508404 7.72427e-05)
(0.0306037 0.000468649 7.49194e-05)
(0.0305071 0.000442855 7.42676e-05)
(0.0303418 0.000406004 7.45101e-05)
(0.0301485 0.000369786 7.37907e-05)
(0.0300062 0.00034628 7.27486e-05)
(0.0297719 0.000311839 7.08461e-05)
(0.0296053 0.000289672 6.80605e-05)
(0.0293413 0.000257182 6.28993e-05)
(0.0290614 0.000225779 5.82902e-05)
(0.0288679 0.000205734 5.53749e-05)
(0.0286682 0.00018644 5.24639e-05)
(0.0283426 0.000157919 4.77342e-05)
(0.02812 0.0001405 4.46921e-05)
(0.0277389 0.0001145 4.06034e-05)
(0.0274753 9.91209e-05 3.85542e-05)
(0.0269962 7.59396e-05 3.55664e-05)
(0.0266536 6.27202e-05 3.37461e-05)
(0.0262641 5.05291e-05 3.20357e-05)
(0.0258192 3.94117e-05 3.05603e-05)
(0.0249063 2.29947e-05 2.87724e-05)
(0.0242115 1.48588e-05 2.82082e-05)
(0.0233867 8.0068e-06 2.7884e-05)
(0.0223911 2.51872e-06 2.75098e-05)
(0.0211701 -1.50738e-06 2.68507e-05)
(-1.72536e-05 9.8394e-06 -3.13407e-06)
(0.000450615 -1.39436e-05 -1.05481e-05)
(0.00208916 -0.00011806 -2.1709e-05)
(0.00357985 -0.000203954 -3.0896e-05)
(0.00673719 -0.000335273 -5.1049e-05)
(0.0103721 -0.00042367 -7.51032e-05)
(0.0129642 -0.000452513 -9.2884e-05)
(0.015579 -0.000442475 -0.000110899)
(0.0192803 -0.000345704 -0.000136545)
(0.0214618 -0.000221498 -0.000152728)
(0.023309 -6.50314e-05 -0.0001682)
(0.0247621 0.000107743 -0.000180013)
(0.0258523 0.000287302 -0.000185473)
(0.026606 0.000452907 -0.00018475)
(0.0270992 0.000605642 -0.000179752)
(0.0273988 0.0007348 -0.000171515)
(0.0275641 0.000844853 -0.000162067)
(0.0276519 0.000939692 -0.000152674)
(0.0276941 0.00102236 -0.000142716)
(0.0277121 0.00109376 -0.000131975)
(0.0277131 0.00115327 -0.000120355)
(0.0277128 0.00120631 -0.000104702)
(0.0277133 0.00124863 -8.25586e-05)
(0.0277199 0.00127476 -6.88235e-05)
(0.0277343 0.00130447 -4.3872e-05)
(0.0277564 0.00132417 -2.64011e-05)
(0.0277909 0.00133515 -1.37957e-05)
(0.0278403 0.00133818 1.67088e-06)
(0.0279072 0.00133368 1.57339e-05)
(0.0279531 0.00133186 2.05146e-05)
(0.0280578 0.00131645 2.39287e-05)
(0.028188 0.00129517 2.24709e-05)
(0.0283352 0.00126874 2.07912e-05)
(0.0285031 0.00123833 2.52579e-05)
(0.0286026 0.00122146 2.80427e-05)
(0.0287914 0.0011841 2.85398e-05)
(0.0289898 0.00114356 3.1097e-05)
(0.0291978 0.00110178 4.21584e-05)
(0.0294142 0.00105918 5.49551e-05)
(0.0295373 0.00103652 6.21045e-05)
(0.0297536 0.00099324 7.27488e-05)
(0.029965 0.000949683 7.97713e-05)
(0.030163 0.000905329 7.93863e-05)
(0.0302655 0.000881104 7.76295e-05)
(0.030432 0.00083581 7.42401e-05)
(0.030579 0.000790116 6.85793e-05)
(0.030708 0.000744415 6.51348e-05)
(0.0307687 0.000719846 6.65934e-05)
(0.0308566 0.000674625 7.16411e-05)
(0.0309137 0.0006304 7.94388e-05)
(0.0309312 0.00060717 8.41705e-05)
(0.0309398 0.000565373 8.81757e-05)
(0.0309175 0.000524527 8.40807e-05)
(0.0308903 0.000502964 8.12218e-05)
(0.0308108 0.00046339 7.73727e-05)
(0.0306934 0.000425049 7.49659e-05)
(0.0306158 0.000405313 7.43406e-05)
(0.030444 0.000368688 7.45652e-05)
(0.0302414 0.000332955 7.41943e-05)
(0.0301235 0.000314713 7.33554e-05)
(0.0298774 0.000280507 7.11362e-05)
(0.0297395 0.00026312 6.89643e-05)
(0.0294576 0.00023022 6.35649e-05)
(0.0291553 0.000198344 5.87334e-05)
(0.0289913 0.000182466 5.62659e-05)
(0.0286533 0.000152456 5.10423e-05)
(0.0284686 0.000137662 4.81383e-05)
(0.0282745 0.000123373 4.52402e-05)
(0.0278577 9.66221e-05 4.0366e-05)
(0.027622 8.37754e-05 3.83766e-05)
(0.0270907 6.00767e-05 3.49846e-05)
(0.0267734 4.90482e-05 3.33666e-05)
(0.0264118 3.87382e-05 3.18318e-05)
(0.0259988 2.92159e-05 3.04705e-05)
(0.0249814 1.2882e-05 2.86292e-05)
(0.024305 6.21051e-06 2.82332e-05)
(0.0235011 6.5042e-07 2.80304e-05)
(0.0225366 -3.78289e-06 2.77361e-05)
(0.02133 -6.7848e-06 2.70976e-05)
(-0.000168166 3.22324e-06 -3.90552e-06)
(0.00069338 -7.67475e-05 -1.20144e-05)
(0.00190181 -0.000180533 -2.02155e-05)
(0.00423493 -0.000308468 -3.48594e-05)
(0.00744045 -0.000442168 -5.48354e-05)
(0.0100057 -0.00050299 -7.13255e-05)
(0.013602 -0.000543214 -9.50934e-05)
(0.0163304 -0.000526994 -0.00011378)
(0.0188768 -0.000456034 -0.000131702)
(0.0211755 -0.000333794 -0.000149436)
(0.0231185 -0.000173655 -0.000166945)
(0.0246471 8.05989e-06 -0.000180522)
(0.0260817 0.000255428 -0.000187349)
(0.0267528 0.000425367 -0.000184879)
(0.0271827 0.000576482 -0.000178289)
(0.0274375 0.000703705 -0.000169009)
(0.0275381 0.000777357 -0.000162337)
(0.0276282 0.000874432 -0.000152704)
(0.0276745 0.000960721 -0.000142838)
(0.0276962 0.00103477 -0.00013241)
(0.0277004 0.00109664 -0.000121561)
(0.0277037 0.0011534 -0.000106977)
(0.0277055 0.00119766 -8.57123e-05)
(0.0277189 0.00123776 -6.07945e-05)
(0.0277316 0.00125958 -4.39439e-05)
(0.0277553 0.00128164 -2.70887e-05)
(0.02779 0.00129509 -1.52367e-05)
(0.0278397 0.00130185 5.87493e-08)
(0.0279046 0.00130053 1.46557e-05)
(0.0279878 0.00129259 2.23793e-05)
(0.028063 0.00128428 2.42412e-05)
(0.0281914 0.00126618 2.32492e-05)
(0.0283354 0.0012427 2.04831e-05)
(0.0284979 0.00121575 2.4593e-05)
(0.028619 0.00119484 2.87239e-05)
(0.0288005 0.00116092 2.89506e-05)
(0.0289942 0.00112302 3.05764e-05)
(0.0291979 0.00108369 4.10495e-05)
(0.0294046 0.00104466 5.3402e-05)
(0.0295521 0.00101717 6.23458e-05)
(0.0297608 0.0009766 7.22908e-05)
(0.0299695 0.000935156 7.99325e-05)
(0.0301603 0.000893939 7.96452e-05)
(0.0302829 0.00086505 7.73648e-05)
(0.0304429 0.000822939 7.41463e-05)
(0.0305872 0.00077909 6.85674e-05)
(0.0307104 0.00073665 6.50982e-05)
(0.0307841 0.00070739 6.66202e-05)
(0.0308688 0.00066483 7.14918e-05)
(0.0309244 0.00062258 7.88329e-05)
(0.030945 0.000594635 8.47193e-05)
(0.0309526 0.000556515 8.85009e-05)
(0.0309319 0.000517657 8.43275e-05)
(0.0308792 0.000481197 7.95943e-05)
(0.0308232 0.000455811 7.72452e-05)
(0.0307106 0.000419549 7.50095e-05)
(0.030614 0.000395544 7.42772e-05)
(0.0304576 0.000362695 7.46161e-05)
(0.0302665 0.000329371 7.43833e-05)
(0.0301262 0.000307838 7.33527e-05)
(0.0298971 0.000276392 7.12832e-05)
(0.0297271 0.000255292 6.85062e-05)
(0.0294745 0.000226153 6.36221e-05)
(0.0292044 0.000197902 5.93456e-05)
(0.0290074 0.000178776 5.63662e-05)
(0.028709 0.000152447 5.17184e-05)
(0.0284876 0.000134679 4.81782e-05)
(0.0282547 0.000117866 4.47087e-05)
(0.0278881 9.46755e-05 4.04195e-05)
(0.0276219 8.03502e-05 3.81604e-05)
(0.0271634 6.00269e-05 3.52056e-05)
(0.0268031 4.72972e-05 3.33403e-05)
(0.0264029 3.61416e-05 3.1654e-05)
(0.0259173 2.55754e-05 3.01553e-05)
(0.0250713 1.23053e-05 2.86672e-05)
(0.0243491 5.11061e-06 2.82529e-05)
(0.0234998 -6.21318e-07 2.80628e-05)
(0.0224824 -5.025e-06 2.77772e-05)
(0.0211916 -7.83927e-06 2.7043e-05)
(-0.000253539 0.000113081 -1.06109e-05)
(0.000177687 3.96575e-05 -1.43534e-05)
(-6.81663e-05 0.000348818 -4.42006e-05)
(0.000612726 0.000291563 -5.4224e-05)
(0.00239631 8.10733e-05 -6.96664e-05)
(0.00508949 -0.000170976 -8.68924e-05)
(0.00728486 -0.000343831 -9.90982e-05)
(0.0109529 -0.000566166 -0.000117903)
(0.0135468 -0.000647493 -0.000128755)
(0.0161173 -0.000674173 -0.000139123)
(0.0185835 -0.000633759 -0.000148596)
(0.0208179 -0.000536063 -0.000158155)
(0.0234745 -0.000309309 -0.000171606)
(0.0248197 -0.000125952 -0.000178826)
(0.025803 5.78247e-05 -0.000180214)
(0.0264705 0.000228705 -0.00017628)
(0.0269054 0.0003787 -0.000169319)
(0.0270698 0.000452421 -0.000164082)
(0.0272723 0.000568873 -0.000152251)
(0.0273964 0.000668375 -0.000139608)
(0.0274723 0.000753898 -0.000127579)
(0.0275228 0.000826742 -0.000114238)
(0.0275604 0.000887569 -9.66308e-05)
(0.0275997 0.000940138 -7.303e-05)
(0.027624 0.000969509 -5.83251e-05)
(0.027672 0.00100856 -3.57586e-05)
(0.0277285 0.00103826 -2.22825e-05)
(0.0277942 0.00105856 -8.63845e-06)
(0.0278736 0.00107089 7.61505e-06)
(0.027971 0.00107531 1.94126e-05)
(0.0280366 0.00107932 2.30403e-05)
(0.0281736 0.00107286 2.63549e-05)
(0.0283271 0.00106077 2.42571e-05)
(0.0284998 0.00104421 2.42202e-05)
(0.0286045 0.00103634 2.72524e-05)
(0.0288005 0.00101232 3.13338e-05)
(0.0290046 0.000983572 3.20154e-05)
(0.0292148 0.000951975 3.88744e-05)
(0.0294341 0.000919096 5.01209e-05)
(0.02956 0.000902335 5.7609e-05)
(0.0297808 0.000867454 6.95222e-05)
(0.0299965 0.000831663 7.82475e-05)
(0.0302018 0.000795149 7.9982e-05)
(0.0303077 0.000775753 7.81077e-05)
(0.0304817 0.000737964 7.41161e-05)
(0.0306346 0.000699177 6.82688e-05)
(0.0307688 0.000659922 6.49912e-05)
(0.0308327 0.000639192 6.63359e-05)
(0.0309273 0.00059978 7.09442e-05)
(0.0309896 0.000560443 7.76972e-05)
(0.0310093 0.000539881 8.22286e-05)
(0.0310219 0.000502305 8.75469e-05)
(0.0310049 0.000465861 8.53238e-05)
(0.0309523 0.00043008 8.02839e-05)
(0.0309075 0.000411713 7.80072e-05)
(0.0307946 0.000377321 7.51951e-05)
(0.0307203 0.000359683 7.45008e-05)
(0.0305541 0.000326504 7.44768e-05)
(0.0303559 0.000293975 7.43996e-05)
(0.0302408 0.000277501 7.37869e-05)
(0.0299994 0.000246276 7.15131e-05)
(0.0298646 0.000230429 6.94028e-05)
(0.0295869 0.000200232 6.41212e-05)
(0.0292882 0.000170926 5.96133e-05)
(0.0291262 0.000156402 5.72924e-05)
(0.0287917 0.000128827 5.19152e-05)
(0.028609 0.000115323 4.87995e-05)
(0.0284172 0.000102191 4.56808e-05)
(0.0280021 7.76456e-05 4.03679e-05)
(0.0277675 6.59328e-05 3.82165e-05)
(0.0272344 4.4367e-05 3.47699e-05)
(0.0269151 3.44092e-05 3.3212e-05)
(0.0265523 2.52028e-05 3.17191e-05)
(0.0261381 1.67846e-05 3.0374e-05)
(0.0251105 2.60321e-06 2.85641e-05)
(0.024425 -2.94077e-06 2.82071e-05)
(0.0236164 -7.44256e-06 2.80255e-05)
(0.0226423 -1.07504e-05 2.77802e-05)
(0.0214192 -1.26751e-05 2.71694e-05)
(-0.000457239 0.00022656 -2.17199e-05)
(-0.000598871 0.000380676 -3.9407e-05)
(-0.000398557 0.000451474 -5.59934e-05)
(0.000452241 0.000298918 -6.60348e-05)
(0.00212982 5.481e-05 -7.87584e-05)
(0.00419448 -0.000181848 -8.99054e-05)
(0.0072489 -0.000460476 -0.000104791)
(0.00999202 -0.000649697 -0.000116573)
(0.0127735 -0.000758118 -0.000126152)
(0.0155145 -0.000790989 -0.000135225)
(0.0181479 -0.000749686 -0.000143483)
(0.0211012 -0.000606735 -0.000155942)
(0.0230212 -0.000432856 -0.000167222)
(0.0245057 -0.000240585 -0.000177463)
(0.0255941 -4.237e-05 -0.000181639)
(0.0263312 0.000140033 -0.000179041)
(0.0268045 0.000298626 -0.000172673)
(0.0270319 0.000394869 -0.000165915)
(0.0272367 0.000512401 -0.000153543)
(0.0273649 0.000613828 -0.000140454)
(0.0274469 0.00070281 -0.000128616)
(0.0275006 0.000777406 -0.000116116)
(0.0275413 0.000840911 -0.000100094)
(0.0275811 0.000894908 -7.82463e-05)
(0.0276121 0.000928547 -5.97575e-05)
(0.0276617 0.000969398 -3.66186e-05)
(0.0277201 0.00100198 -2.35415e-05)
(0.0277847 0.00102439 -1.10872e-05)
(0.0278617 0.00103931 5.09453e-06)
(0.0279255 0.00104674 1.51282e-05)
(0.0280335 0.00104929 2.29898e-05)
(0.0281681 0.0010454 2.73548e-05)
(0.0283184 0.00103572 2.49586e-05)
(0.028484 0.00102186 2.36232e-05)
(0.0286112 0.00101118 2.70283e-05)
(0.0288005 0.000989854 3.22417e-05)
(0.0290021 0.000963617 3.20012e-05)
(0.0292064 0.000934197 3.78306e-05)
(0.0294138 0.000904576 4.81631e-05)
(0.0295669 0.000883465 5.69843e-05)
(0.0297818 0.000850903 6.92357e-05)
(0.0299944 0.000816917 7.80712e-05)
(0.0301906 0.000783444 8.03135e-05)
(0.0303196 0.000759882 7.81306e-05)
(0.030488 0.000724631 7.41182e-05)
(0.0306389 0.000687737 6.83144e-05)
(0.030766 0.000651833 6.49969e-05)
(0.0308453 0.000626672 6.64076e-05)
(0.0309383 0.000589601 7.06216e-05)
(0.0309987 0.000552334 7.71198e-05)
(0.0310228 0.00052745 8.24285e-05)
(0.0310346 0.000493011 8.77266e-05)
(0.0310192 0.000458351 8.57979e-05)
(0.0309892 0.000435204 8.22773e-05)
(0.0309219 0.000403828 7.79688e-05)
(0.0308134 0.000371243 7.51879e-05)
(0.0307213 0.00034984 7.44618e-05)
(0.0305708 0.00032022 7.44403e-05)
(0.0303839 0.000289888 7.44907e-05)
(0.0302471 0.000270454 7.38166e-05)
(0.0300211 0.000241576 7.16607e-05)
(0.0298555 0.000222447 6.8948e-05)
(0.0296071 0.00019579 6.41436e-05)
(0.0293426 0.000170086 6.02312e-05)
(0.0291467 0.000152414 5.75008e-05)
(0.0288525 0.000128439 5.27322e-05)
(0.0286324 0.000111926 4.88944e-05)
(0.028399 9.64665e-05 4.51154e-05)
(0.0280337 7.51735e-05 4.03994e-05)
(0.0277734 6.23791e-05 3.80077e-05)
(0.0273115 4.38784e-05 3.50164e-05)
(0.0269466 3.22206e-05 3.3193e-05)
(0.0265514 2.25088e-05 3.1583e-05)
(0.0260432 1.28988e-05 3.00421e-05)
(0.0251971 1.57073e-06 2.85969e-05)
(0.0244692 -4.43951e-06 2.8197e-05)
(0.0236342 -8.83589e-06 2.80142e-05)
(0.0226138 -1.21701e-05 2.77937e-05)
(0.0212689 -1.37304e-05 2.70836e-05)
(-0.000283488 0.000143767 -1.21437e-05)
(-0.000596741 0.000373148 -3.24255e-05)
(-0.000568669 0.00051591 -5.03168e-05)
(-0.000102295 0.000480646 -6.08375e-05)
(0.00127247 0.000278756 -7.5707e-05)
(0.00276941 9.9906e-05 -8.64606e-05)
(0.00559042 -0.000181952 -0.00010368)
(0.0078705 -0.000381556 -0.000115263)
(0.0103788 -0.000542277 -0.000125766)
(0.0141704 -0.000683268 -0.000139785)
(0.0117639 -0.000609554 -0.000148904)
(0.0145228 -0.00071665 -0.00015269)
(0.0171939 -0.000729839 -0.000157604)
(0.019657 -0.000665921 -0.000164377)
(0.0217987 -0.000531695 -0.000170694)
(0.0235349 -0.000358625 -0.000173775)
(0.0248442 -0.000169556 -0.000175056)
(0.0257877 1.29004e-05 -0.000171409)
(0.0264055 0.000173736 -0.000163903)
(0.0268052 0.000308808 -0.000153684)
(0.0270548 0.000421505 -0.00013911)
(0.0272133 0.000512359 -0.000124744)
(0.0273218 0.000589427 -0.000109853)
(0.0273733 0.000631987 -9.97401e-05)
(0.0274515 0.000689757 -7.64052e-05)
(0.0275275 0.000738901 -5.13469e-05)
(0.0276089 0.000779962 -3.24656e-05)
(0.0276958 0.000811365 -1.83348e-05)
(0.0277906 0.000834927 -3.58586e-06)
(0.0278495 0.000850147 5.10329e-06)
(0.0279699 0.000863064 1.76547e-05)
(0.0281142 0.000867976 2.6716e-05)
(0.0282767 0.000867006 2.90889e-05)
(0.0284561 0.000861255 2.65681e-05)
(0.0285636 0.000860042 2.64219e-05)
(0.0287674 0.000846963 3.13238e-05)
(0.0289835 0.000829761 3.41892e-05)
(0.0292011 0.000807414 3.76215e-05)
(0.0293234 0.000796392 4.2192e-05)
(0.0295516 0.0007712 5.27533e-05)
(0.0297805 0.000744274 6.51427e-05)
(0.0300024 0.000715527 7.50638e-05)
(0.0301219 0.000700816 7.88557e-05)
(0.0303262 0.000670924 7.89296e-05)
(0.0305093 0.000639894 7.4871e-05)
(0.0306705 0.000607686 6.85031e-05)
(0.0307501 0.000590727 6.5424e-05)
(0.0308797 0.000557882 6.59441e-05)
(0.0309835 0.000524355 7.06999e-05)
(0.0310539 0.000490216 7.63959e-05)
(0.0310771 0.00047249 8.03173e-05)
(0.0310952 0.00043915 8.58712e-05)
(0.0310832 0.000406663 8.5707e-05)
(0.0310632 0.000390111 8.38255e-05)
(0.0309965 0.000359223 7.9471e-05)
(0.0308904 0.00032894 7.59487e-05)
(0.0308194 0.000313377 7.50045e-05)
(0.0306595 0.00028383 7.44633e-05)
(0.0304671 0.000254697 7.42834e-05)
(0.0303543 0.000239933 7.39166e-05)
(0.030118 0.000211724 7.18742e-05)
(0.0299863 0.000197417 6.97305e-05)
(0.0297133 0.000170035 6.44268e-05)
(0.0295647 0.000156286 6.21439e-05)
(0.0292584 0.000130184 5.82548e-05)
(0.0290924 0.000117252 5.57782e-05)
(0.028746 9.27972e-05 4.97085e-05)
(0.0285557 8.09118e-05 4.64046e-05)
(0.0281433 5.86529e-05 4.06183e-05)
(0.0279089 4.80547e-05 3.8298e-05)
(0.0273737 2.86807e-05 3.4817e-05)
(0.0270534 1.98519e-05 3.33103e-05)
(0.0266898 1.17421e-05 3.18413e-05)
(0.0262748 4.39112e-06 3.04602e-05)
(0.0252343 -7.57423e-06 2.84995e-05)
(0.024542 -1.19965e-05 2.80927e-05)
(0.0237254 -1.53678e-05 2.79181e-05)
(0.0227401 -1.76071e-05 2.7729e-05)
(0.0215001 -1.83713e-05 2.72046e-05)
(-0.000546969 0.00038302 -1.90393e-05)
(-0.00100651 0.000710499 -3.55453e-05)
(-0.00148798 0.00104207 -5.98869e-05)
(-0.00152801 0.001126 -7.21282e-05)
(-0.00126767 0.00110038 -9.1416e-05)
(-0.000756356 0.000970718 -0.000104738)
(0.000581077 0.000696217 -0.000121867)
(0.00208113 0.000386016 -0.000131933)
(0.0041024 4.85622e-05 -0.000141682)
(0.0065736 -0.00029183 -0.00014958)
(0.0103944 -0.000632984 -0.000153506)
(0.0133417 -0.000786033 -0.000153408)
(0.0162318 -0.000826785 -0.000154414)
(0.0189188 -0.000776628 -0.000159353)
(0.0212789 -0.000642329 -0.000165935)
(0.0232129 -0.000457485 -0.000170242)
(0.0246314 -0.00025808 -0.000174419)
(0.0256381 -6.50068e-05 -0.000173246)
(0.0262888 0.000104442 -0.000166764)
(0.026713 0.000243316 -0.000158142)
(0.0269268 0.000333735 -0.000147682)
(0.0271193 0.000431855 -0.000131945)
(0.0272498 0.000514875 -0.000118937)
(0.0273473 0.00058839 -0.00010258)
(0.027427 0.000648471 -8.01872e-05)
(0.0275035 0.000699329 -5.55014e-05)
(0.0275824 0.000740941 -3.57601e-05)
(0.0276459 0.000768382 -2.48964e-05)
(0.0277349 0.000795542 -1.22479e-05)
(0.0278355 0.000817513 2.96485e-06)
(0.0279548 0.000833365 1.66745e-05)
(0.0280932 0.000840775 2.60028e-05)
(0.0282038 0.000843054 2.97864e-05)
(0.0283686 0.000841953 2.85701e-05)
(0.0285531 0.000835518 2.5507e-05)
(0.0287548 0.000824454 3.10973e-05)
(0.0289643 0.000810328 3.45512e-05)
(0.0291141 0.000797629 3.55281e-05)
(0.0293211 0.00077607 4.17514e-05)
(0.0295452 0.000752925 5.12294e-05)
(0.0297721 0.000727993 6.40374e-05)
(0.0299822 0.000702111 7.36331e-05)
(0.0301293 0.000683609 7.89135e-05)
(0.0303268 0.000655875 7.9297e-05)
(0.0305095 0.000626562 7.53034e-05)
(0.0306632 0.000597241 6.91083e-05)
(0.0307614 0.000576564 6.52066e-05)
(0.0308865 0.000546208 6.56973e-05)
(0.03099 0.000514341 7.06363e-05)
(0.0310575 0.000483646 7.54207e-05)
(0.0310887 0.000461816 8.02386e-05)
(0.0311075 0.0004302 8.5653e-05)
(0.0310967 0.000400106 8.59918e-05)
(0.0310737 0.000380183 8.39347e-05)
(0.0310122 0.000351599 7.98122e-05)
(0.0309129 0.00032369 7.61312e-05)
(0.0308281 0.000305084 7.49772e-05)
(0.0306781 0.000277695 7.44312e-05)
(0.0305032 0.000251608 7.42692e-05)
(0.0303682 0.000233786 7.39648e-05)
(0.0301453 0.000207586 7.2135e-05)
(0.0299882 0.000190724 6.94654e-05)
(0.0297364 0.00016582 6.44639e-05)
(0.0295553 0.000149404 6.18421e-05)
(0.0292808 0.000126358 5.85197e-05)
(0.0290781 0.000110941 5.5399e-05)
(0.0287711 8.96223e-05 4.99076e-05)
(0.0285473 7.59453e-05 4.60113e-05)
(0.0281808 5.64806e-05 4.07782e-05)
(0.0279182 4.47557e-05 3.81247e-05)
(0.0274576 2.82735e-05 3.51364e-05)
(0.0270875 1.78149e-05 3.33527e-05)
(0.0266873 9.13589e-06 3.17622e-05)
(0.0261886 9.5598e-07 3.01727e-05)
(0.0253211 -8.63719e-06 2.85343e-05)
(0.0245807 -1.33619e-05 2.8053e-05)
(0.0237176 -1.67583e-05 2.78756e-05)
(0.0226552 -1.88137e-05 2.76951e-05)
(0.0212976 -1.92331e-05 2.70828e-05)
(-0.000326734 0.000226129 -1.03756e-05)
(-0.00100442 0.000706591 -3.26067e-05)
(-0.00135629 0.000950282 -4.79619e-05)
(-0.00153055 0.00112611 -6.6015e-05)
(-0.00137985 0.00113374 -7.67982e-05)
(-0.000832893 0.00101929 -9.4583e-05)
(-5.66269e-05 0.000868958 -0.000105541)
(0.00110687 0.00063076 -0.000115285)
(0.00270505 0.00033532 -0.000125319)
(0.00586872 -0.000124271 -0.000138746)
(0.0084151 -0.000398973 -0.000145998)
(0.0111821 -0.000605194 -0.000150562)
(0.0140112 -0.000728787 -0.000155277)
(0.0167655 -0.000754112 -0.000160454)
(0.0193056 -0.000693087 -0.000166763)
(0.0215274 -0.000563196 -0.000171634)
(0.0233223 -0.000387912 -0.000174614)
(0.0246928 -0.000198645 -0.000174521)
(0.0256683 -1.54722e-05 -0.00016953)
(0.0263167 0.000146891 -0.000162814)
(0.0267378 0.000282159 -0.000151004)
(0.0270025 0.000392805 -0.000135868)
(0.0271736 0.000482327 -0.000121638)