/*--------------------------------*- C++ -*----------------------------------*\
  =========                 |
  \\      /  F ield         | OpenFOAM: The Open Source CFD Toolbox
   \\    /   O peration     | Website:  https://openfoam.org
    \\  /    A nd           | Version:  7
     \\/     M anipulation  |
\*---------------------------------------------------------------------------*/
FoamFile
{
    version     2.0;
    format      ascii;
    class       volScalarField;
    location    "20000";
    object      epsilon;
}
// * * * * * * * * * * * * * * * * * * * * * * * * * * * * * * * * * * * * * //

dimensions      [0 2 -3 0 0 0 0];

internalField   nonuniform List<scalar> 
10981
(
5.67225e-06
5.04239e-06
3.84242e-06
2.92452e-06
2.2358e-06
1.73528e-06
1.37881e-06
1.12501e-06
9.41638e-07
8.06064e-07
7.0318e-07
6.23022e-07
5.58988e-07
5.06631e-07
4.62904e-07
4.25671e-07
3.9341e-07
3.65018e-07
3.3968e-07
3.1679e-07
2.9589e-07
2.76633e-07
2.58752e-07
2.42042e-07
2.26346e-07
2.11539e-07
1.97527e-07
1.84234e-07
1.71602e-07
1.59585e-07
1.48149e-07
1.37266e-07
1.26918e-07
1.17093e-07
1.07785e-07
9.89945e-08
9.07291e-08
8.29999e-08
7.58216e-08
6.92105e-08
6.31822e-08
5.775e-08
5.2923e-08
4.87053e-08
4.50957e-08
4.2089e-08
3.96774e-08
3.78535e-08
3.66129e-08
3.59572e-08
3.58966e-08
3.64513e-08
3.76531e-08
3.95446e-08
4.21786e-08
4.56158e-08
4.99242e-08
5.51804e-08
6.1475e-08
6.89243e-08
7.76887e-08
8.79971e-08
1.00179e-07
1.14703e-07
1.32221e-07
1.5363e-07
1.8014e-07
2.13364e-07
2.55426e-07
3.09089e-07
3.77916e-07
4.66497e-07
5.80821e-07
7.28951e-07
9.22244e-07
1.1773e-06
1.51651e-06
1.93557e-06
1.92043e-06
5.58167e-06
4.73554e-06
3.59323e-06
2.77207e-06
2.15806e-06
1.70024e-06
1.36507e-06
1.12041e-06
9.40368e-07
8.05676e-07
7.02775e-07
6.22351e-07
5.58044e-07
5.05487e-07
4.6164e-07
4.24358e-07
3.92102e-07
3.63751e-07
3.3848e-07
3.15671e-07
2.94861e-07
2.75697e-07
2.5791e-07
2.41293e-07
2.25687e-07
2.10967e-07
1.97037e-07
1.83821e-07
1.71262e-07
1.59313e-07
1.47939e-07
1.37113e-07
1.26817e-07
1.17038e-07
1.07771e-07
9.90172e-08
9.07826e-08
8.3079e-08
7.59211e-08
6.93252e-08
6.33072e-08
5.78806e-08
5.30552e-08
4.88355e-08
4.5221e-08
4.22069e-08
3.97862e-08
3.79519e-08
3.66998e-08
3.60317e-08
3.59577e-08
3.64979e-08
3.76838e-08
3.95579e-08
4.21729e-08
4.55897e-08
4.98774e-08
5.5114e-08
6.13927e-08
6.88339e-08
7.76029e-08
8.79358e-08
1.00171e-07
1.14787e-07
1.32452e-07
1.54078e-07
1.80895e-07
2.14538e-07
2.57148e-07
3.11495e-07
3.81135e-07
4.70624e-07
5.85883e-07
7.3488e-07
9.28864e-07
1.18425e-06
1.52337e-06
1.94195e-06
1.92682e-06
5.47681e-06
4.46664e-06
3.33206e-06
2.57852e-06
2.03386e-06
1.62739e-06
1.32349e-06
1.09644e-06
9.25883e-07
7.96238e-07
6.96254e-07
6.17546e-07
5.54288e-07
5.02407e-07
4.59025e-07
4.22086e-07
3.90099e-07
3.61971e-07
3.36891e-07
3.14251e-07
2.93594e-07
2.7457e-07
2.56912e-07
2.40415e-07
2.24921e-07
2.10305e-07
1.96472e-07
1.83347e-07
1.70872e-07
1.59e-07
1.47697e-07
1.36935e-07
1.26697e-07
1.16969e-07
1.07748e-07
9.90339e-08
9.08332e-08
8.31576e-08
7.60219e-08
6.94425e-08
6.34357e-08
5.80155e-08
5.31919e-08
4.89701e-08
4.53504e-08
4.23286e-08
3.98983e-08
3.80529e-08
3.67887e-08
3.61076e-08
3.60194e-08
3.65444e-08
3.77137e-08
3.95697e-08
4.2165e-08
4.55611e-08
4.98276e-08
5.50445e-08
6.13078e-08
6.87416e-08
7.75169e-08
8.78769e-08
1.00169e-07
1.14883e-07
1.32701e-07
1.54553e-07
1.81687e-07
2.15758e-07
2.58922e-07
3.13956e-07
3.84401e-07
4.74772e-07
5.90921e-07
7.40715e-07
9.35263e-07
1.19084e-06
1.52967e-06
1.94757e-06
1.93283e-06
5.03787e-06
4.22536e-06
3.12137e-06
2.41269e-06
1.91855e-06
1.55442e-06
1.28013e-06
1.07169e-06
9.12114e-07
7.88713e-07
6.92033e-07
6.15065e-07
5.52712e-07
5.01293e-07
4.58145e-07
4.21323e-07
3.89398e-07
3.6131e-07
3.36264e-07
3.1366e-07
2.93043e-07
2.74064e-07
2.56456e-07
2.40013e-07
2.24574e-07
2.10015e-07
1.9624e-07
1.83171e-07
1.7075e-07
1.5893e-07
1.47675e-07
1.36958e-07
1.2676e-07
1.17069e-07
1.07879e-07
9.91916e-08
9.10126e-08
8.33533e-08
7.62287e-08
6.96552e-08
6.36493e-08
5.82253e-08
5.33938e-08
4.91607e-08
4.55269e-08
4.2489e-08
4.00411e-08
3.8177e-08
3.68934e-08
3.61921e-08
3.6083e-08
3.6586e-08
3.77319e-08
3.95628e-08
4.21313e-08
4.54991e-08
4.9737e-08
5.49265e-08
6.11666e-08
6.85854e-08
7.73592e-08
8.77379e-08
1.00078e-07
1.1488e-07
1.32839e-07
1.54901e-07
1.82333e-07
2.16806e-07
2.60489e-07
3.16162e-07
3.87347e-07
4.78516e-07
5.95443e-07
7.45885e-07
9.40825e-07
1.19645e-06
1.53494e-06
1.95239e-06
1.9391e-06
4.6736e-06
4.02832e-06
2.97614e-06
2.2979e-06
1.83569e-06
1.50066e-06
1.24875e-06
1.05548e-06
9.05264e-07
7.87168e-07
6.93198e-07
6.17418e-07
5.55417e-07
5.03923e-07
4.60504e-07
4.23344e-07
3.91083e-07
3.6269e-07
3.37385e-07
3.14569e-07
2.93784e-07
2.74677e-07
2.56974e-07
2.40461e-07
2.24975e-07
2.10386e-07
1.96593e-07
1.83516e-07
1.71094e-07
1.59278e-07
1.48029e-07
1.3732e-07
1.2713e-07
1.17446e-07
1.08262e-07
9.95767e-08
9.13972e-08
8.37339e-08
7.66012e-08
7.00155e-08
6.39933e-08
5.85493e-08
5.36945e-08
4.94354e-08
4.57738e-08
4.27068e-08
4.02291e-08
3.83351e-08
3.70213e-08
3.62897e-08
3.61499e-08
3.66213e-08
3.77343e-08
3.95306e-08
4.20625e-08
4.53922e-08
4.95912e-08
5.47432e-08
6.09496e-08
6.83425e-08
7.71034e-08
8.74886e-08
9.98623e-08
1.14736e-07
1.32817e-07
1.55065e-07
1.82764e-07
2.17599e-07
2.61752e-07
3.17998e-07
3.8984e-07
4.81702e-07
5.99278e-07
7.50216e-07
9.45371e-07
1.20083e-06
1.53874e-06
1.95574e-06
1.94385e-06
4.24274e-06
3.77904e-06
2.8695e-06
2.23983e-06
1.80221e-06
1.48431e-06
1.24488e-06
1.05996e-06
9.14578e-07
7.987e-07
7.05208e-07
6.28879e-07
5.65805e-07
5.13036e-07
4.68329e-07
4.29971e-07
3.96648e-07
3.67344e-07
3.41274e-07
3.17828e-07
2.96529e-07
2.77007e-07
2.5897e-07
2.42191e-07
2.26493e-07
2.11735e-07
1.97807e-07
1.84623e-07
1.72115e-07
1.6023e-07
1.48924e-07
1.38168e-07
1.27937e-07
1.18217e-07
1.08999e-07
1.00282e-07
9.20698e-08
8.4373e-08
7.72049e-08
7.05815e-08
6.45189e-08
5.90322e-08
5.41326e-08
4.98275e-08
4.6119e-08
4.30051e-08
4.0481e-08
3.85414e-08
3.71828e-08
3.6407e-08
3.6223e-08
3.66497e-08
3.77168e-08
3.94653e-08
4.19473e-08
4.52252e-08
4.93714e-08
5.44711e-08
6.06288e-08
6.798e-08
7.67108e-08
8.70836e-08
9.94694e-08
1.14389e-07
1.3256e-07
1.54955e-07
1.82872e-07
2.1801e-07
2.62555e-07
3.1928e-07
3.91665e-07
4.84079e-07
6.02136e-07
7.53371e-07
9.48515e-07
1.20356e-06
1.5407e-06
1.9574e-06
1.94657e-06
3.75472e-06
3.39389e-06
2.74734e-06
2.22216e-06
1.82335e-06
1.5192e-06
1.28386e-06
1.09892e-06
9.51489e-07
8.32475e-07
7.35326e-07
6.55203e-07
5.8846e-07
5.32304e-07
4.84576e-07
4.43593e-07
4.08031e-07
3.76847e-07
3.49218e-07
3.24489e-07
3.02142e-07
2.81767e-07
2.63039e-07
2.45699e-07
2.29546e-07
2.14417e-07
2.00187e-07
1.86754e-07
1.7404e-07
1.61982e-07
1.50532e-07
1.39651e-07
1.29313e-07
1.19498e-07
1.10195e-07
1.01399e-07
9.31124e-08
8.53437e-08
7.81047e-08
7.14105e-08
6.52769e-08
5.97184e-08
5.47469e-08
5.037e-08
4.65907e-08
4.34074e-08
4.08159e-08
3.88109e-08
3.73891e-08
3.65515e-08
3.63067e-08
3.66724e-08
3.76774e-08
3.9362e-08
4.17776e-08
4.49866e-08
4.90623e-08
5.40916e-08
6.01812e-08
6.74701e-08
7.61485e-08
8.64834e-08
9.88521e-08
1.13782e-07
1.32e-07
1.5449e-07
1.8256e-07
2.17918e-07
2.62756e-07
3.1984e-07
3.9262e-07
4.85413e-07
6.03747e-07
7.55044e-07
9.49914e-07
1.20427e-06
1.54045e-06
1.95703e-06
1.94646e-06
3.23963e-06
2.81383e-06
2.51441e-06
2.18302e-06
1.8739e-06
1.60371e-06
1.37551e-06
1.18596e-06
1.02949e-06
9.00315e-07
7.93323e-07
7.04243e-07
6.29611e-07
5.66648e-07
5.13131e-07
4.67279e-07
4.27659e-07
3.93122e-07
3.62739e-07
3.35762e-07
3.11586e-07
2.89728e-07
2.69797e-07
2.51482e-07
2.34536e-07
2.18762e-07
2.04001e-07
1.90132e-07
1.77055e-07
1.64693e-07
1.52986e-07
1.41886e-07
1.31358e-07
1.21376e-07
1.11924e-07
1.02993e-07
9.45826e-08
8.66966e-08
7.93454e-08
7.25423e-08
6.6302e-08
6.06388e-08
5.55644e-08
5.10868e-08
4.72093e-08
4.39313e-08
4.12486e-08
3.91561e-08
3.76502e-08
3.67312e-08
3.64067e-08
3.66933e-08
3.76184e-08
3.9221e-08
4.15519e-08
4.46732e-08
4.86589e-08
5.35971e-08
5.95968e-08
6.68e-08
7.54e-08
8.56677e-08
9.79847e-08
1.12884e-07
1.31099e-07
1.53621e-07
1.81766e-07
2.1725e-07
2.62266e-07
3.19567e-07
3.92577e-07
4.85553e-07
6.03937e-07
7.55037e-07
9.49347e-07
1.20272e-06
1.5377e-06
1.9543e-06
1.9427e-06
2.74241e-06
2.12004e-06
2.09492e-06
2.00803e-06
1.86109e-06
1.68121e-06
1.49336e-06
1.31407e-06
1.15191e-06
1.00991e-06
8.87885e-07
7.84079e-07
6.96136e-07
6.21649e-07
5.58399e-07
5.04453e-07
4.5817e-07
4.18186e-07
3.83374e-07
3.5281e-07
3.25738e-07
3.01545e-07
2.79734e-07
2.59903e-07
2.41732e-07
2.24964e-07
2.09394e-07
1.9486e-07
1.81234e-07
1.68415e-07
1.56323e-07
1.44895e-07
1.34086e-07
1.2386e-07
1.14192e-07
1.05067e-07
9.64796e-08
8.843e-08
8.09247e-08
7.39746e-08
6.75927e-08
6.17922e-08
5.65847e-08
5.19781e-08
4.79762e-08
4.45787e-08
4.17818e-08
3.95803e-08
3.79703e-08
3.69511e-08
3.65291e-08
3.67193e-08
3.75476e-08
3.90515e-08
4.12807e-08
4.42969e-08
4.81743e-08
5.30022e-08
5.88916e-08
6.59866e-08
7.44833e-08
8.46554e-08
9.68875e-08
1.11716e-07
1.29879e-07
1.52372e-07
1.80518e-07
2.16036e-07
2.61117e-07
3.18501e-07
3.91578e-07
4.84547e-07
6.02756e-07
7.53398e-07
9.46852e-07
1.19892e-06
1.53242e-06
1.94903e-06
1.93452e-06
2.32389e-06
1.52486e-06
1.57246e-06
1.6515e-06
1.67809e-06
1.64053e-06
1.55029e-06
1.42645e-06
1.28747e-06
1.14752e-06
1.01566e-06
8.96632e-07
7.92067e-07
7.01729e-07
6.24395e-07
5.58437e-07
5.02168e-07
4.54011e-07
4.12577e-07
3.76682e-07
3.45336e-07
3.17724e-07
2.9318e-07
2.71165e-07
2.51244e-07
2.33069e-07
2.16364e-07
2.00907e-07
1.86526e-07
1.73083e-07
1.60471e-07
1.48607e-07
1.37425e-07
1.26878e-07
1.16929e-07
1.07556e-07
9.87445e-08
9.04897e-08
8.27936e-08
7.56637e-08
6.91105e-08
6.31456e-08
5.77798e-08
5.30209e-08
4.88728e-08
4.53355e-08
4.24055e-08
4.00775e-08
3.83468e-08
3.72121e-08
3.66781e-08
3.67582e-08
3.74764e-08
3.88686e-08
4.0983e-08
4.38806e-08
4.76357e-08
5.23385e-08
5.81016e-08
6.5071e-08
7.34448e-08
8.34988e-08
9.56195e-08
1.10345e-07
1.28417e-07
1.50834e-07
1.78921e-07
2.144e-07
2.59455e-07
3.16812e-07
3.89822e-07
4.82619e-07
6.00456e-07
7.50406e-07
9.42727e-07
1.19318e-06
1.52486e-06
1.94127e-06
1.92188e-06
1.99354e-06
1.13026e-06
1.1209e-06
1.2274e-06
1.3411e-06
1.42221e-06
1.45279e-06
1.43014e-06
1.36238e-06
1.26331e-06
1.14765e-06
1.02782e-06
9.12574e-07
8.07042e-07
7.13485e-07
6.32233e-07
5.62504e-07
5.02987e-07
4.52214e-07
4.08766e-07
3.71375e-07
3.38954e-07
3.10596e-07
2.85558e-07
2.6324e-07
2.43159e-07
2.24931e-07
2.08253e-07
1.92883e-07
1.78635e-07
1.6536e-07
1.52944e-07
1.41298e-07
1.30355e-07
1.20065e-07
1.10392e-07
1.01314e-07
9.28176e-08
8.48997e-08
7.75628e-08
7.08142e-08
6.46633e-08
5.91195e-08
5.41901e-08
4.98789e-08
4.61861e-08
4.31082e-08
4.06399e-08
3.87759e-08
3.75137e-08
3.68567e-08
3.68163e-08
3.74146e-08
3.86854e-08
4.06755e-08
4.34449e-08
4.70676e-08
5.16346e-08
5.72596e-08
6.40904e-08
7.23268e-08
8.22458e-08
9.42352e-08
1.08835e-07
1.26786e-07
1.4909e-07
1.77074e-07
2.12456e-07
2.57416e-07
3.14658e-07
3.87492e-07
4.79983e-07
5.97281e-07
7.46334e-07
9.3728e-07
1.18583e-06
1.51536e-06
1.9313e-06
1.90585e-06
1.7253e-06
8.85312e-07
8.1129e-07
8.75736e-07
9.84205e-07
1.10269e-06
1.20687e-06
1.27786e-06
1.30453e-06
1.28496e-06
1.22546e-06
1.13746e-06
1.03377e-06
9.2563e-07
8.21243e-07
7.2554e-07
6.40758e-07
5.67275e-07
5.04376e-07
4.50823e-07
4.05227e-07
3.66248e-07
3.327e-07
3.03575e-07
2.78043e-07
2.55433e-07
2.3521e-07
2.1695e-07
2.00318e-07
1.85054e-07
1.70954e-07
1.57861e-07
1.45654e-07
1.34239e-07
1.23546e-07
1.13525e-07
1.0414e-07
9.53697e-08
8.72027e-08
7.96357e-08
7.26718e-08
6.63174e-08
6.05799e-08
5.54658e-08
5.09784e-08
4.71179e-08
4.38807e-08
4.12615e-08
3.92542e-08
3.78555e-08
3.7067e-08
3.68983e-08
3.73692e-08
3.85118e-08
4.03708e-08
4.3005e-08
4.64882e-08
5.09117e-08
5.63902e-08
6.3073e-08
7.1161e-08
8.09325e-08
9.27757e-08
1.07231e-07
1.2504e-07
1.47204e-07
1.75049e-07
2.10293e-07
2.55103e-07
3.12161e-07
3.84731e-07
4.76804e-07
5.93424e-07
7.41409e-07
9.30771e-07
1.17717e-06
1.50424e-06
1.91938e-06
1.88729e-06
1.49312e-06
7.22831e-07
6.1013e-07
6.30487e-07
7.01557e-07
8.00501e-07
9.12972e-07
1.02357e-06
1.11588e-06
1.17562e-06
1.19421e-06
1.17076e-06
1.11152e-06
1.02722e-06
9.29747e-07
8.29422e-07
7.33613e-07
6.46599e-07
5.7015e-07
5.04348e-07
4.48325e-07
4.008e-07
3.60409e-07
3.25881e-07
2.96118e-07
2.70204e-07
2.474e-07
2.27116e-07
2.08892e-07
1.92364e-07
1.77253e-07
1.63343e-07
1.50466e-07
1.38496e-07
1.27337e-07
1.16918e-07
1.07188e-07
9.81125e-08
8.96713e-08
8.18538e-08
7.46576e-08
6.80853e-08
6.21417e-08
5.68316e-08
5.21578e-08
4.81201e-08
4.4715e-08
4.19366e-08
3.97785e-08
3.82361e-08
3.73097e-08
3.70069e-08
3.73453e-08
3.83546e-08
4.00778e-08
4.25722e-08
4.59111e-08
5.01858e-08
5.55119e-08
6.20399e-08
6.99718e-08
7.95866e-08
9.12728e-08
1.0557e-07
1.23221e-07
1.45225e-07
1.72907e-07
2.07979e-07
2.52598e-07
3.09418e-07
3.81655e-07
4.73219e-07
5.89046e-07
7.35819e-07
9.23415e-07
1.16742e-06
1.49173e-06
1.9057e-06
1.86679e-06
1.28723e-06
6.0415e-07
4.78761e-07
4.69049e-07
5.0501e-07
5.70785e-07
6.58471e-07
7.61438e-07
8.70032e-07
9.71286e-07
1.05098e-06
1.09717e-06
1.10357e-06
1.07113e-06
1.0072e-06
9.22715e-07
8.28957e-07
7.35182e-07
6.47568e-07
5.69341e-07
5.01498e-07
4.43642e-07
3.94672e-07
3.53246e-07
3.1804e-07
2.87879e-07
2.61776e-07
2.38933e-07
2.18715e-07
2.00627e-07
1.84285e-07
1.69393e-07
1.55726e-07
1.4311e-07
1.31417e-07
1.20547e-07
1.10432e-07
1.01021e-07
9.22813e-08
8.41946e-08
7.67511e-08
6.99487e-08
6.37886e-08
5.82737e-08
5.34057e-08
4.91836e-08
4.56038e-08
4.266e-08
4.03453e-08
3.86541e-08
3.7585e-08
3.71438e-08
3.73458e-08
3.82185e-08
3.98028e-08
4.21546e-08
4.53461e-08
4.94686e-08
5.46384e-08
6.10069e-08
6.87773e-08
7.82289e-08
8.97504e-08
1.03881e-07
1.21361e-07
1.43191e-07
1.70692e-07
2.0557e-07
2.49966e-07
3.06507e-07
3.78354e-07
4.69337e-07
5.84276e-07
7.29714e-07
9.15384e-07
1.15679e-06
1.47803e-06
1.89045e-06
1.8448e-06
1.10717e-06
5.11444e-07
3.87108e-07
3.62575e-07
3.75405e-07
4.12297e-07
4.70654e-07
5.48195e-07
6.41376e-07
7.4431e-07
8.47244e-07
9.37431e-07
1.00186e-06
1.03087e-06
1.02107e-06
9.76154e-07
9.05161e-07
8.19384e-07
7.2927e-07
6.42559e-07
5.63821e-07
4.94963e-07
4.36094e-07
3.86331e-07
3.44382e-07
3.089e-07
2.78658e-07
2.52615e-07
2.29926e-07
2.09925e-07
1.92093e-07
1.76031e-07
1.61434e-07
1.48071e-07
1.35767e-07
1.24392e-07
1.1385e-07
1.04072e-07
9.50113e-08
8.66378e-08
7.89337e-08
7.18906e-08
6.55059e-08
5.97794e-08
5.47111e-08
5.02994e-08
4.654e-08
4.34264e-08
4.0951e-08
3.91071e-08
3.7892e-08
3.73095e-08
3.73727e-08
3.81068e-08
3.95505e-08
4.1758e-08
4.48005e-08
4.8769e-08
5.37804e-08
5.99867e-08
6.7592e-08
7.68762e-08
8.82278e-08
1.02185e-07
1.19488e-07
1.41135e-07
1.68442e-07
2.03108e-07
2.4726e-07
3.03491e-07
3.74907e-07
4.65251e-07
5.79222e-07
7.23219e-07
9.0682e-07
1.14542e-06
1.46331e-06
1.87379e-06
1.82166e-06
9.5513e-07
4.38034e-07
3.20859e-07
2.90043e-07
2.90375e-07
3.09301e-07
3.44148e-07
3.95519e-07
4.64163e-07
5.48218e-07
6.44198e-07
7.44858e-07
8.39243e-07
9.14507e-07
9.59215e-07
9.66869e-07
9.37929e-07
8.79304e-07
8.01661e-07
7.16047e-07
6.31339e-07
5.5321e-07
4.84363e-07
4.2536e-07
3.7553e-07
3.33642e-07
2.98345e-07
2.68378e-07
2.42669e-07
2.20347e-07
2.00727e-07
1.83277e-07
1.67593e-07
1.53369e-07
1.40372e-07
1.28432e-07
1.1742e-07
1.07244e-07
9.78399e-08
8.91631e-08
8.11864e-08
7.3894e-08
6.7278e-08
6.13349e-08
5.60624e-08
5.14576e-08
4.75156e-08
4.42294e-08
4.15906e-08
3.95918e-08
3.82287e-08
3.75033e-08
3.74265e-08
3.80212e-08
3.93239e-08
4.13868e-08
4.42801e-08
4.80943e-08
5.29465e-08
5.89895e-08
6.64282e-08
7.5543e-08
8.67221e-08
1.00504e-07
1.17625e-07
1.39083e-07
1.6619e-07
2.00636e-07
2.44529e-07
3.00429e-07
3.71384e-07
4.61043e-07
5.73983e-07
7.16447e-07
8.97847e-07
1.13346e-06
1.44773e-06
1.85587e-06
1.79765e-06
8.29713e-07
3.7956e-07
2.71625e-07
2.38822e-07
2.32533e-07
2.41066e-07
2.61433e-07
2.93721e-07
3.39508e-07
4.00889e-07
4.77321e-07
5.66582e-07
6.63273e-07
7.58075e-07
8.38828e-07
8.93368e-07
9.13209e-07
8.96362e-07
8.4781e-07
7.77389e-07
6.96333e-07
6.14253e-07
5.37612e-07
4.697e-07
4.11422e-07
3.62258e-07
3.21031e-07
2.8639e-07
2.57064e-07
2.31969e-07
2.10225e-07
1.91145e-07
1.742e-07
1.5899e-07
1.45213e-07
1.32645e-07
1.21119e-07
1.10514e-07
1.00744e-07
9.17485e-08
8.34888e-08
7.59402e-08
6.90884e-08
6.29255e-08
5.74467e-08
5.26473e-08
4.85215e-08
4.50615e-08
4.22585e-08
4.01039e-08
3.85922e-08
3.77236e-08
3.75069e-08
3.79625e-08
3.91249e-08
4.10443e-08
4.37894e-08
4.74504e-08
5.21443e-08
5.80246e-08
6.52968e-08
7.4242e-08
8.52485e-08
9.88534e-08
1.15793e-07
1.37061e-07
1.63967e-07
1.9819e-07
2.4182e-07
2.97379e-07
3.67852e-07
4.56793e-07
5.68647e-07
7.09498e-07
8.88583e-07
1.12104e-06
1.43144e-06
1.83682e-06
1.77301e-06
7.2773e-07
3.32956e-07
2.34474e-07
2.01866e-07
1.9224e-07
1.94858e-07
2.06635e-07
2.27163e-07
2.57398e-07
2.99228e-07
3.55032e-07
4.25323e-07
5.08668e-07
6.00909e-07
6.9399e-07
7.76522e-07
8.36187e-07
8.6338e-07
8.54494e-07
8.13088e-07
7.48261e-07
6.71231e-07
5.91999e-07
5.17483e-07
4.51299e-07
3.94527e-07
3.46719e-07
3.0672e-07
2.73181e-07
2.44838e-07
2.20613e-07
1.99641e-07
1.81247e-07
1.64918e-07
1.50267e-07
1.37006e-07
1.2492e-07
1.13855e-07
1.03698e-07
9.43713e-08
8.58201e-08
7.80101e-08
7.09198e-08
6.45361e-08
5.88507e-08
5.38571e-08
4.95479e-08
4.59148e-08
4.2948e-08
4.06383e-08
3.89787e-08
3.79678e-08
3.76124e-08
3.79306e-08
3.89545e-08
4.07325e-08
4.33318e-08
4.68418e-08
5.13796e-08
5.70992e-08
6.42071e-08
7.29847e-08
8.38205e-08
9.72514e-08
1.14013e-07
1.35095e-07
1.61804e-07
1.95808e-07
2.39176e-07
2.94392e-07
3.64373e-07
4.52573e-07
5.63298e-07
7.02466e-07
8.79132e-07
1.10828e-06
1.41458e-06
1.81681e-06
1.74797e-06
6.4715e-07
2.96413e-07
2.06264e-07
1.74662e-07
1.63375e-07
1.62541e-07
1.6911e-07
1.82378e-07
2.02798e-07
2.31631e-07
2.70825e-07
3.22765e-07
3.88477e-07
4.6704e-07
5.55068e-07
6.45368e-07
7.27206e-07
7.88392e-07
8.18841e-07
8.14086e-07
7.76863e-07
7.15801e-07
6.42025e-07
5.65648e-07
4.93715e-07
4.29901e-07
3.75288e-07
3.29414e-07
2.91111e-07
2.59039e-07
2.31954e-07
2.08805e-07
1.88756e-07
1.71162e-07
1.55534e-07
1.41509e-07
1.28816e-07
1.17259e-07
1.06694e-07
9.70211e-08
8.81702e-08
8.00943e-08
7.27634e-08
6.61585e-08
6.02672e-08
5.50804e-08
5.05892e-08
4.67843e-08
4.36552e-08
4.11916e-08
3.93856e-08
3.82339e-08
3.77414e-08
3.79242e-08
3.88119e-08
4.04511e-08
4.29073e-08
4.62692e-08
5.06537e-08
5.62153e-08
6.31613e-08
7.17738e-08
8.2442e-08
9.57022e-08
1.12289e-07
1.33191e-07
1.59708e-07
1.935e-07
2.36612e-07
2.91485e-07
3.60968e-07
4.48406e-07
5.57965e-07
6.95389e-07
8.69544e-07
1.09525e-06
1.39725e-06
1.79598e-06
1.72285e-06
5.82759e-07
2.67363e-07
1.84334e-07
1.54005e-07
1.41932e-07
1.3902e-07
1.42315e-07
1.50953e-07
1.65064e-07
1.85444e-07
2.13465e-07
2.51066e-07
3.00578e-07
3.63135e-07
4.38109e-07
5.22506e-07
6.09626e-07
6.89183e-07
7.49234e-07
7.79668e-07
7.75807e-07
7.40155e-07
6.81184e-07
6.09917e-07
5.36347e-07
4.67345e-07
4.06405e-07
3.54458e-07
3.10952e-07
2.74691e-07
2.44348e-07
2.18713e-07
1.9678e-07
1.77757e-07
1.61038e-07
1.46169e-07
1.32814e-07
1.20728e-07
1.09732e-07
9.9698e-08
9.0538e-08
8.21911e-08
7.46173e-08
6.77906e-08
6.16939e-08
5.63151e-08
5.16434e-08
4.76682e-08
4.43782e-08
4.17623e-08
3.98112e-08
3.85203e-08
3.78926e-08
3.79418e-08
3.86957e-08
4.01985e-08
4.25144e-08
4.57309e-08
4.99648e-08
5.53711e-08
6.21577e-08
7.06078e-08
8.1111e-08
9.4204e-08
1.10621e-07
1.31347e-07
1.57679e-07
1.91264e-07
2.34124e-07
2.88657e-07
3.57634e-07
4.44292e-07
5.52648e-07
6.88268e-07
8.59828e-07
1.08198e-06
1.3795e-06
1.7744e-06
1.69778e-06
5.29343e-07
2.43517e-07
1.66745e-07
1.37793e-07
1.25428e-07
1.21242e-07
1.22405e-07
1.27978e-07
1.37889e-07
1.52622e-07
1.7313e-07
2.00841e-07
2.37672e-07
2.85886e-07
3.46457e-07
4.18895e-07
5.00301e-07
5.84134e-07
6.60343e-07
7.1727e-07
7.45124e-07
7.39561e-07
7.03375e-07
6.45168e-07
5.75853e-07
5.05087e-07
4.39314e-07
3.81639e-07
3.32728e-07
2.91893e-07
2.57903e-07
2.29454e-07
2.05384e-07
1.84748e-07
1.66807e-07
1.51005e-07
1.36928e-07
1.24272e-07
1.12817e-07
1.02405e-07
9.29252e-08
8.43011e-08
7.64813e-08
6.94319e-08
6.31301e-08
5.75603e-08
5.27094e-08
4.85654e-08
4.51159e-08
4.2349e-08
4.02542e-08
3.88256e-08
3.80643e-08
3.7982e-08
3.86042e-08
3.99731e-08
4.21512e-08
4.52251e-08
4.9311e-08
5.45644e-08
6.11941e-08
6.94843e-08
7.98251e-08
9.27538e-08
1.09004e-07
1.2956e-07
1.55712e-07
1.89096e-07
2.3171e-07
2.85902e-07
3.54366e-07
4.40222e-07
5.47338e-07
6.81099e-07
8.49987e-07
1.06848e-06
1.36135e-06
1.75213e-06
1.67274e-06
4.84468e-07
2.23725e-07
1.52441e-07
1.24843e-07
1.12451e-07
1.07464e-07
1.07188e-07
1.10651e-07
1.17656e-07
1.28481e-07
1.43786e-07
1.64614e-07
1.92428e-07
2.29138e-07
2.76931e-07
3.36429e-07
4.07181e-07
4.86117e-07
5.66589e-07
6.38601e-07
6.90817e-07
7.14065e-07
7.04803e-07
6.66537e-07
6.08204e-07
5.4055e-07
4.72691e-07
4.10424e-07
3.56313e-07
3.1069e-07
2.72711e-07
2.41117e-07
2.14641e-07
1.92188e-07
1.7288e-07
1.56042e-07
1.41173e-07
1.279e-07
1.15956e-07
1.05146e-07
9.53339e-08
8.64256e-08
7.83561e-08
7.10823e-08
6.45754e-08
5.88152e-08
5.37863e-08
4.94747e-08
4.58672e-08
4.29506e-08
4.07136e-08
3.91488e-08
3.82555e-08
3.80434e-08
3.85359e-08
3.97732e-08
4.1816e-08
4.47498e-08
4.86903e-08
5.37933e-08
6.02684e-08
6.84007e-08
7.85816e-08
9.13487e-08
1.07436e-07
1.27825e-07
1.53803e-07
1.86991e-07
2.29362e-07
2.83212e-07
3.51154e-07
4.36189e-07
5.42027e-07
6.73875e-07
8.40015e-07
1.05475e-06
1.34284e-06
1.72922e-06
1.64771e-06
4.46899e-07
2.07413e-07
1.40854e-07
1.1449e-07
1.02188e-07
9.66754e-08
9.53849e-08
9.73371e-08
1.02256e-07
1.10277e-07
1.21855e-07
1.37756e-07
1.59085e-07
1.87336e-07
2.24406e-07
2.72366e-07
3.3156e-07
4.01275e-07
4.78077e-07
5.55005e-07
6.22008e-07
6.6816e-07
6.85205e-07
6.70802e-07
6.29481e-07
5.70595e-07
5.04598e-07
4.39861e-07
3.81357e-07
3.31025e-07
2.88832e-07
2.5379e-07
2.24629e-07
2.00137e-07
1.79297e-07
1.61309e-07
1.45568e-07
1.31625e-07
1.19156e-07
1.07925e-07
9.77674e-08
8.85663e-08
8.02425e-08
7.27424e-08
6.60297e-08
6.00797e-08
5.48737e-08
5.03958e-08
4.66315e-08
4.35665e-08
4.11885e-08
3.94887e-08
3.84649e-08
3.81247e-08
3.84895e-08
3.95974e-08
4.15072e-08
4.43032e-08
4.81008e-08
5.30556e-08
5.93781e-08
6.73546e-08
7.73775e-08
8.99856e-08
1.05912e-07
1.26139e-07
1.51947e-07
1.84944e-07
2.27074e-07
2.80581e-07
3.47991e-07
4.3218e-07
5.36703e-07
6.66583e-07
8.29908e-07
1.04079e-06
1.32397e-06
1.70571e-06
1.6227e-06
4.1596e-07
1.94264e-07
1.31651e-07
1.0633e-07
9.41412e-08
8.82539e-08
8.62129e-08
8.70411e-08
9.04083e-08
9.63512e-08
1.05179e-07
1.17457e-07
1.34031e-07
1.56069e-07
1.8511e-07
2.23058e-07
2.71588e-07
3.30933e-07
3.9996e-07
4.74685e-07
5.47677e-07
6.08796e-07
6.47677e-07
6.57297e-07
6.36846e-07
5.92044e-07
5.32614e-07
4.68524e-07
4.072e-07
3.52685e-07
3.06257e-07
2.67537e-07
2.35423e-07
2.08659e-07
1.86107e-07
1.66838e-07
1.50135e-07
1.35461e-07
1.22427e-07
1.1075e-07
1.00229e-07
9.07258e-08
8.21422e-08
7.44129e-08
6.74936e-08
6.13539e-08
5.59715e-08
5.13283e-08
4.74082e-08
4.4196e-08
4.16782e-08
3.98446e-08
3.86916e-08
3.82249e-08
3.84637e-08
3.94441e-08
4.12231e-08
4.38837e-08
4.75404e-08
5.23491e-08
5.8521e-08
6.63434e-08
7.62102e-08
8.86611e-08
1.0443e-07
1.24498e-07
1.50138e-07
1.82948e-07
2.24838e-07
2.77998e-07
3.44863e-07
4.28183e-07
5.31352e-07
6.59212e-07
8.19659e-07
1.02662e-06
1.30479e-06
1.68166e-06
1.59769e-06
3.91382e-07
1.84103e-07
1.24613e-07
1.00093e-07
8.79794e-08
8.17918e-08
7.91639e-08
7.91215e-08
8.12949e-08
8.56474e-08
9.23798e-08
1.01908e-07
1.1488e-07
1.32213e-07
1.55143e-07
1.85268e-07
2.24486e-07
2.73929e-07
3.3373e-07
4.02192e-07
4.74635e-07
5.43077e-07
5.97355e-07
6.27903e-07
6.29254e-07
6.02366e-07
5.54173e-07
4.94578e-07
4.32823e-07
3.75234e-07
3.24871e-07
2.82381e-07
2.47089e-07
2.1782e-07
1.93363e-07
1.72668e-07
1.549e-07
1.39426e-07
1.2578e-07
1.13626e-07
1.02724e-07
9.29068e-08
8.40567e-08
7.60949e-08
6.89675e-08
6.26379e-08
5.70795e-08
5.22719e-08
4.81971e-08
4.48386e-08
4.2182e-08
4.02158e-08
3.89347e-08
3.83429e-08
3.84573e-08
3.9312e-08
4.09623e-08
4.34894e-08
4.70074e-08
5.16719e-08
5.76948e-08
6.53646e-08
7.50767e-08
8.7372e-08
1.02985e-07
1.22896e-07
1.48372e-07
1.80996e-07
2.22646e-07
2.75453e-07
3.41758e-07
4.24182e-07
5.25959e-07
6.51751e-07
8.09263e-07
1.01224e-06
1.2853e-06
1.65709e-06
1.57268e-06
3.7262e-07
1.76613e-07
1.19493e-07
9.55389e-08
8.34401e-08
7.69876e-08
7.38796e-08
7.31428e-08
7.43763e-08
7.74864e-08
8.25908e-08
8.99902e-08
1.00178e-07
1.13871e-07
1.32056e-07
1.56038e-07
1.87464e-07
2.28174e-07
2.78843e-07
3.39279e-07
4.07085e-07
4.76786e-07
5.39855e-07
5.86278e-07
6.07604e-07
6.00236e-07
5.67017e-07
5.15952e-07
4.56834e-07
3.97936e-07
3.44373e-07
2.98247e-07
2.59645e-07
2.27664e-07
2.01107e-07
1.7883e-07
1.59883e-07
1.43531e-07
1.29221e-07
1.16557e-07
1.05253e-07
9.51084e-08
8.59846e-08
7.77865e-08
7.04495e-08
6.39298e-08
5.81962e-08
5.3225e-08
4.89965e-08
4.54929e-08
4.26986e-08
4.06009e-08
3.91932e-08
3.84776e-08
3.84692e-08
3.92001e-08
4.07235e-08
4.31193e-08
4.65005e-08
5.10227e-08
5.68983e-08
6.4417e-08
7.39756e-08
8.61168e-08
1.01576e-07
1.21331e-07
1.46646e-07
1.79085e-07
2.20493e-07
2.72941e-07
3.38671e-07
4.20172e-07
5.20518e-07
6.44194e-07
7.98721e-07
9.97652e-07
1.26553e-06
1.63207e-06
1.54766e-06
3.57989e-07
1.71103e-07
1.15883e-07
9.23606e-08
8.02536e-08
7.3575e-08
7.0076e-08
6.87848e-08
6.92758e-08
7.14119e-08
7.52462e-08
8.09905e-08
8.90179e-08
9.98877e-08
1.14386e-07
1.33574e-07
1.58836e-07
1.91878e-07
2.34188e-07
2.86244e-07
3.47287e-07
4.14084e-07
4.80298e-07
5.36947e-07
5.74447e-07
5.85839e-07
5.69658e-07
5.30616e-07
4.77503e-07
4.19652e-07
3.64142e-07
3.14842e-07
2.72967e-07
2.38142e-07
2.09316e-07
1.85309e-07
1.65072e-07
1.4776e-07
1.32735e-07
1.19526e-07
1.07799e-07
9.73157e-08
8.79121e-08
7.94753e-08
7.19286e-08
6.52199e-08
5.93127e-08
5.41801e-08
4.98002e-08
4.61537e-08
4.32237e-08
4.09965e-08
3.94641e-08
3.86269e-08
3.8498e-08
3.91075e-08
4.05067e-08
4.27739e-08
4.60212e-08
5.04038e-08
5.61347e-08
6.35049e-08
7.29127e-08
8.49025e-08
1.00211e-07
1.19815e-07
1.44972e-07
1.77231e-07
2.184e-07
2.70483e-07
3.35625e-07
4.16179e-07
5.15061e-07
6.36582e-07
7.88079e-07
9.82922e-07
1.24555e-06
1.60665e-06
1.52255e-06
3.47483e-07
1.67405e-07
1.13583e-07
9.03628e-08
7.8228e-08
7.13588e-08
6.75458e-08
6.5817e-08
6.57278e-08
6.7107e-08
6.99577e-08
7.44221e-08
8.07794e-08
8.94633e-08
1.01097e-07
1.16537e-07
1.36927e-07
1.63733e-07
1.98679e-07
2.42758e-07
2.96247e-07
3.57649e-07
4.22774e-07
4.84424e-07
5.3337e-07
5.60854e-07
5.61816e-07
5.37102e-07
4.93114e-07
4.39011e-07
3.83289e-07
3.31663e-07
2.8679e-07
2.49112e-07
2.17907e-07
1.92048e-07
1.70419e-07
1.52075e-07
1.36284e-07
1.22501e-07
1.10334e-07
9.95032e-08
8.98166e-08
8.11414e-08
7.33872e-08
6.64928e-08
6.04161e-08
5.51261e-08
5.05985e-08
4.68128e-08
4.37507e-08
4.13974e-08
3.97435e-08
3.87878e-08
3.85418e-08
3.90333e-08
4.0312e-08
4.24544e-08
4.55716e-08
4.98187e-08
5.54089e-08
6.26347e-08
7.18962e-08
8.37398e-08
9.89036e-08
1.18364e-07
1.43372e-07
1.75458e-07
2.16393e-07
2.68113e-07
3.32658e-07
4.12246e-07
5.09634e-07
6.28966e-07
7.77403e-07
9.68127e-07
1.22546e-06
1.58096e-06
1.49747e-06
3.40838e-07
1.65288e-07
1.12388e-07
8.93623e-08
7.71888e-08
7.01637e-08
6.61046e-08
6.40381e-08
6.35042e-08
6.43052e-08
6.64054e-08
6.98936e-08
7.49753e-08
8.19855e-08
9.14155e-08
1.03954e-07
1.20534e-07
1.42384e-07
1.71041e-07
2.08029e-07
2.54077e-07
3.08918e-07
3.70168e-07
4.32603e-07
4.88273e-07
5.28055e-07
5.44514e-07
5.34886e-07
5.02355e-07
4.54646e-07
4.00774e-07
3.48042e-07
3.00718e-07
2.60342e-07
2.26736e-07
1.98949e-07
1.75851e-07
1.56417e-07
1.39821e-07
1.2544e-07
1.1282e-07
1.01638e-07
9.16694e-08
8.27595e-08
7.48034e-08
6.77297e-08
6.14898e-08
5.60488e-08
5.13797e-08
4.74604e-08
4.42714e-08
4.17969e-08
4.00262e-08
3.89566e-08
3.85979e-08
3.89762e-08
4.0139e-08
4.21617e-08
4.5154e-08
4.92709e-08
5.47261e-08
6.18135e-08
7.09354e-08
8.26405e-08
9.76689e-08
1.16997e-07
1.41868e-07
1.73794e-07
2.14506e-07
2.65868e-07
3.29812e-07
4.0842e-07
5.04292e-07
6.2141e-07
7.66764e-07
9.53355e-07
1.20536e-06
1.55513e-06
1.47258e-06
3.37471e-07
1.64428e-07
1.1209e-07
8.91928e-08
7.69855e-08
6.98412e-08
6.55967e-08
6.32773e-08
6.24111e-08
6.27801e-08
6.43192e-08
6.70759e-08
7.11993e-08
7.69473e-08
8.47076e-08
9.5032e-08
1.0868e-07
1.26668e-07
1.5031e-07
1.81182e-07
2.20385e-07
2.68415e-07
3.24248e-07
3.84456e-07
4.42767e-07
4.90727e-07
5.1982e-07
5.24503e-07
5.04601e-07
4.65451e-07
4.15545e-07
3.63199e-07
3.14239e-07
2.71508e-07
2.35595e-07
2.05869e-07
1.81263e-07
1.60701e-07
1.43277e-07
1.28285e-07
1.1521e-07
1.03679e-07
9.34353e-08
8.42995e-08
7.61509e-08
6.89078e-08
6.25144e-08
5.69315e-08
5.21295e-08
4.80845e-08
4.4776e-08
4.2187e-08
4.03058e-08
3.91285e-08
3.86631e-08
3.8934e-08
3.99872e-08
4.18963e-08
4.47705e-08
4.87641e-08
5.40918e-08
6.1049e-08
7.00404e-08
8.16178e-08
9.65235e-08
1.15734e-07
1.40486e-07
1.72271e-07
2.12776e-07
2.6379e-07
3.27135e-07
4.04753e-07
4.99093e-07
6.1398e-07
7.56244e-07
9.38706e-07
1.18539e-06
1.52932e-06
1.44805e-06
3.36447e-07
1.64453e-07
1.125e-07
8.97239e-08
7.75073e-08
7.02844e-08
6.59097e-08
6.34095e-08
6.23039e-08
6.23602e-08
6.34911e-08
6.5713e-08
6.9132e-08
7.39467e-08
8.04645e-08
8.91284e-08
1.00556e-07
1.15584e-07
1.35316e-07
1.61147e-07
1.94428e-07
2.3604e-07
2.85893e-07
3.42019e-07
3.99839e-07
4.52154e-07
4.90438e-07
5.07438e-07
5.00049e-07
4.70785e-07
4.26685e-07
3.76306e-07
3.26737e-07
2.82183e-07
2.44187e-07
2.12596e-07
1.86498e-07
1.6481e-07
1.46557e-07
1.30961e-07
1.1744e-07
1.05574e-07
9.5069e-08
8.57224e-08
7.73964e-08
6.99982e-08
6.34649e-08
5.77529e-08
5.28297e-08
4.86698e-08
4.52517e-08
4.25574e-08
4.05743e-08
3.92972e-08
3.87329e-08
3.89041e-08
3.98555e-08
4.16592e-08
4.44236e-08
4.83031e-08
5.35131e-08
6.0351e-08
6.92245e-08
8.06888e-08
9.54894e-08
1.14603e-07
1.3926e-07
1.70929e-07
2.11251e-07
2.61934e-07
3.24688e-07
4.01314e-07
4.94112e-07
6.0676e-07
7.45938e-07
9.24293e-07
1.16568e-06
1.50369e-06
1.42402e-06
3.37497e-07
1.65296e-07
1.13586e-07
9.09216e-08
7.87152e-08
7.14472e-08
6.69883e-08
6.43668e-08
6.3098e-08
6.29384e-08
6.37848e-08
6.56303e-08
6.85487e-08
7.2694e-08
7.83117e-08
8.57606e-08