/*--------------------------------*- C++ -*----------------------------------*\
  =========                 |
  \\      /  F ield         | OpenFOAM: The Open Source CFD Toolbox
   \\    /   O peration     | Website:  https://openfoam.org
    \\  /    A nd           | Version:  7
     \\/     M anipulation  |
\*---------------------------------------------------------------------------*/
FoamFile
{
    version     2.0;
    format      ascii;
    class       volScalarField;
    location    "20000";
    object      k;
}
// * * * * * * * * * * * * * * * * * * * * * * * * * * * * * * * * * * * * * //

dimensions      [0 2 -2 0 0 0 0];

internalField   nonuniform List<scalar> 
10981
(
5.10503e-06
2.74862e-05
3.36182e-05
3.63622e-05
3.79483e-05
3.91878e-05
4.03938e-05
4.1647e-05
4.29352e-05
4.42212e-05
4.54679e-05
4.66454e-05
4.77307e-05
4.8706e-05
4.95574e-05
5.02731e-05
5.08437e-05
5.12611e-05
5.15188e-05
5.16118e-05
5.15366e-05
5.12917e-05
5.08772e-05
5.02951e-05
4.95495e-05
4.86462e-05
4.75933e-05
4.64004e-05
4.5079e-05
4.36422e-05
4.21047e-05
4.04822e-05
3.87918e-05
3.70513e-05
3.5279e-05
3.34936e-05
3.17136e-05
2.99575e-05
2.82426e-05
2.6585e-05
2.49992e-05
2.34975e-05
2.20897e-05
2.07832e-05
1.95827e-05
1.84903e-05
1.75058e-05
1.66276e-05
1.58526e-05
1.51768e-05
1.45961e-05
1.41062e-05
1.3703e-05
1.33822e-05
1.31391e-05
1.29684e-05
1.28639e-05
1.28182e-05
1.2823e-05
1.287e-05
1.29513e-05
1.30603e-05
1.31925e-05
1.33458e-05
1.35207e-05
1.37196e-05
1.39468e-05
1.4207e-05
1.45038e-05
1.48381e-05
1.52045e-05
1.55878e-05
1.59573e-05
1.62584e-05
1.63959e-05
1.6191e-05
1.52478e-05
1.23409e-05
1.72839e-06
5.02349e-06
2.67338e-05
3.28364e-05
3.57498e-05
3.74841e-05
3.87724e-05
3.99376e-05
4.11057e-05
4.22996e-05
4.35011e-05
4.4681e-05
4.58112e-05
4.68673e-05
4.78295e-05
4.86814e-05
4.94093e-05
5.00016e-05
5.04489e-05
5.0743e-05
5.08778e-05
5.08487e-05
5.06533e-05
5.02906e-05
4.97618e-05
4.90702e-05
4.82209e-05
4.7221e-05
4.60796e-05
4.48075e-05
4.34172e-05
4.19229e-05
4.034e-05
3.86853e-05
3.69764e-05
3.52315e-05
3.34695e-05
3.17091e-05
2.99688e-05
2.82664e-05
2.66182e-05
2.50392e-05
2.3542e-05
2.2137e-05
2.08317e-05
1.96312e-05
1.85379e-05
1.75519e-05
1.66716e-05
1.58941e-05
1.52156e-05
1.46319e-05
1.41389e-05
1.37322e-05
1.34076e-05
1.31606e-05
1.29857e-05
1.28768e-05
1.28266e-05
1.28272e-05
1.28703e-05
1.29483e-05
1.30549e-05
1.31859e-05
1.33393e-05
1.35158e-05
1.3718e-05
1.39503e-05
1.42172e-05
1.45224e-05
1.48661e-05
1.52422e-05
1.56346e-05
1.60114e-05
1.6317e-05
1.6455e-05
1.62461e-05
1.52942e-05
1.23732e-05
1.73414e-06
4.92951e-06
2.59722e-05
3.18249e-05
3.477e-05
3.66253e-05
3.80146e-05
3.92298e-05
4.04019e-05
4.15738e-05
4.27442e-05
4.38922e-05
4.49961e-05
4.60346e-05
4.69885e-05
4.78414e-05
4.85788e-05
4.91886e-05
4.96602e-05
4.9985e-05
5.01558e-05
5.01675e-05
5.00166e-05
4.97015e-05
4.92226e-05
4.85823e-05
4.77848e-05
4.68367e-05
4.5746e-05
4.4523e-05
4.31796e-05
4.17292e-05
4.0187e-05
3.85692e-05
3.68932e-05
3.51773e-05
3.34401e-05
3.17006e-05
2.99774e-05
2.82885e-05
2.66508e-05
2.50793e-05
2.35872e-05
2.21853e-05
2.08815e-05
1.96811e-05
1.85869e-05
1.75994e-05
1.6717e-05
1.5937e-05
1.52556e-05
1.46688e-05
1.41724e-05
1.37621e-05
1.34337e-05
1.31824e-05
1.30032e-05
1.28898e-05
1.28351e-05
1.28314e-05
1.28707e-05
1.29455e-05
1.30498e-05
1.31796e-05
1.33332e-05
1.35115e-05
1.37173e-05
1.39548e-05
1.42288e-05
1.45425e-05
1.48957e-05
1.52815e-05
1.56829e-05
1.60668e-05
1.63764e-05
1.65144e-05
1.6301e-05
1.53398e-05
1.24039e-05
1.73975e-06
4.52862e-06
2.47679e-05
3.03728e-05
3.33249e-05
3.53054e-05
3.68422e-05
3.81782e-05
3.94313e-05
4.06496e-05
4.18431e-05
4.3003e-05
4.41141e-05
4.51595e-05
4.61227e-05
4.69888e-05
4.77442e-05
4.83771e-05
4.88771e-05
4.92351e-05
4.94438e-05
4.94975e-05
4.9392e-05
4.91253e-05
4.86969e-05
4.81085e-05
4.73637e-05
4.6468e-05
4.54289e-05
4.42559e-05
4.29602e-05
4.15547e-05
4.00539e-05
3.84738e-05
3.68315e-05
3.5145e-05
3.3433e-05
3.17145e-05
3.00082e-05
2.83325e-05
2.67044e-05
2.51396e-05
2.36515e-05
2.22514e-05
2.09477e-05
1.9746e-05
1.86495e-05
1.76589e-05
1.6773e-05
1.59891e-05
1.53036e-05
1.47125e-05
1.42116e-05
1.37966e-05
1.34633e-05
1.32071e-05
1.30227e-05
1.29041e-05
1.28444e-05
1.28359e-05
1.28709e-05
1.29422e-05
1.3044e-05
1.31726e-05
1.33265e-05
1.35067e-05
1.37161e-05
1.39591e-05
1.42402e-05
1.45625e-05
1.49252e-05
1.5321e-05
1.57315e-05
1.61227e-05
1.64367e-05
1.65753e-05
1.63583e-05
1.53887e-05
1.24394e-05
1.74743e-06
4.1802e-06
2.35054e-05
2.88849e-05
3.17748e-05
3.38136e-05
3.54638e-05
3.69195e-05
3.8274e-05
3.95692e-05
4.08182e-05
4.20186e-05
4.31608e-05
4.42323e-05
4.52201e-05
4.61115e-05
4.68945e-05
4.75583e-05
4.80929e-05
4.84895e-05
4.87408e-05
4.88405e-05
4.87843e-05
4.85693e-05
4.81946e-05
4.76609e-05
4.69712e-05
4.61302e-05
4.51447e-05
4.40234e-05
4.27768e-05
4.14173e-05
3.99589e-05
3.84172e-05
3.68088e-05
3.51518e-05
3.34646e-05
3.17663e-05
3.0076e-05
2.8412e-05
2.6792e-05
2.52319e-05
2.37457e-05
2.23451e-05
2.10391e-05
1.98337e-05
1.87325e-05
1.77365e-05
1.68448e-05
1.60548e-05
1.53632e-05
1.4766e-05
1.4259e-05
1.38378e-05
1.34983e-05
1.32357e-05
1.30451e-05
1.29203e-05
1.28547e-05
1.28408e-05
1.2871e-05
1.29385e-05
1.30376e-05
1.31648e-05
1.33189e-05
1.35009e-05
1.37139e-05
1.39624e-05
1.42507e-05
1.45817e-05
1.49542e-05
1.536e-05
1.57799e-05
1.61787e-05
1.64974e-05
1.66371e-05
1.64169e-05
1.54401e-05
1.24799e-05
1.75747e-06
3.74098e-06
2.1829e-05
2.72627e-05
3.01678e-05
3.22501e-05
3.39777e-05
3.5527e-05
3.69739e-05
3.8351e-05
3.96689e-05
4.09265e-05
4.21172e-05
4.32314e-05
4.42588e-05
4.51889e-05
4.60115e-05
4.67167e-05
4.72954e-05
4.77393e-05
4.80409e-05
4.81939e-05
4.81936e-05
4.80364e-05
4.77207e-05
4.72468e-05
4.66166e-05
4.58342e-05
4.49055e-05
4.38387e-05
4.26436e-05
4.13319e-05
3.99172e-05
3.84145e-05
3.68405e-05
3.52127e-05
3.35497e-05
3.18706e-05
3.01946e-05
2.85405e-05
2.69261e-05
2.53681e-05
2.38808e-05
2.24766e-05
2.1165e-05
1.99525e-05
1.88433e-05
1.78387e-05
1.69382e-05
1.61394e-05
1.5439e-05
1.48332e-05
1.43177e-05
1.38884e-05
1.35407e-05
1.32702e-05
1.30717e-05
1.29394e-05
1.28668e-05
1.28464e-05
1.28711e-05
1.29342e-05
1.30302e-05
1.31558e-05
1.33098e-05
1.34935e-05
1.37101e-05
1.39639e-05
1.42594e-05
1.45991e-05
1.49815e-05
1.53975e-05
1.5827e-05
1.62338e-05
1.65579e-05
1.66995e-05
1.64775e-05
1.54955e-05
1.25288e-05
1.77066e-06
3.21299e-06
1.96438e-05
2.54924e-05
2.86064e-05
3.07756e-05
3.25484e-05
3.41377e-05
3.56298e-05
3.70567e-05
3.84265e-05
3.9736e-05
4.09778e-05
4.21423e-05
4.32197e-05
4.42003e-05
4.50746e-05
4.58335e-05
4.64682e-05
4.69707e-05
4.73335e-05
4.75501e-05
4.76151e-05
4.75247e-05
4.72763e-05
4.68694e-05
4.63053e-05
4.55873e-05
4.47205e-05
4.37123e-05
4.2572e-05
4.13108e-05
3.99416e-05
3.84793e-05
3.69401e-05
3.53415e-05
3.3702e-05
3.20407e-05
3.03771e-05
2.87304e-05
2.71188e-05
2.55594e-05
2.40674e-05
2.26556e-05
2.13342e-05
2.01106e-05
1.89892e-05
1.79721e-05
1.70589e-05
1.62477e-05
1.55353e-05
1.49178e-05
1.43911e-05
1.39509e-05
1.35928e-05
1.33121e-05
1.3104e-05
1.29625e-05
1.28813e-05
1.28534e-05
1.28716e-05
1.29294e-05
1.30217e-05
1.31451e-05
1.32987e-05
1.34838e-05
1.37037e-05
1.39627e-05
1.42652e-05
1.46136e-05
1.50059e-05
1.54322e-05
1.58718e-05
1.62872e-05
1.66175e-05
1.67622e-05
1.65402e-05
1.55565e-05
1.25889e-05
1.78777e-06
2.63663e-06
1.69551e-05
2.34952e-05
2.71451e-05
2.95864e-05
3.14481e-05
3.30319e-05
3.44861e-05
3.58765e-05
3.72256e-05
3.85339e-05
3.97923e-05
4.09882e-05
4.21083e-05
4.314e-05
4.4072e-05
4.48937e-05
4.55954e-05
4.61683e-05
4.66044e-05
4.68964e-05
4.70383e-05
4.70254e-05
4.68544e-05
4.6524e-05
4.60344e-05
4.53882e-05
4.45898e-05
4.36458e-05
4.2565e-05
4.13578e-05
4.0037e-05
3.8617e-05
3.71136e-05
3.55444e-05
3.39279e-05
3.22833e-05
3.06303e-05
2.89884e-05
2.73765e-05
2.58122e-05
2.43115e-05
2.28879e-05
2.15524e-05
2.0313e-05
1.9175e-05
1.81409e-05
1.72109e-05
1.63833e-05
1.56551e-05
1.50225e-05
1.44814e-05
1.40275e-05
1.36562e-05
1.33631e-05
1.31431e-05
1.29906e-05
1.28992e-05
1.28623e-05
1.28728e-05
1.29244e-05
1.30122e-05
1.31328e-05
1.32855e-05
1.34715e-05
1.36943e-05
1.39581e-05
1.42674e-05
1.46243e-05
1.50263e-05
1.54633e-05
1.59131e-05
1.63378e-05
1.66753e-05
1.68248e-05
1.66053e-05
1.56234e-05
1.26618e-05
1.80923e-06
2.09647e-06
1.40861e-05
2.11172e-05
2.55315e-05
2.85758e-05
3.07798e-05
3.24775e-05
3.38941e-05
3.51719e-05
3.639e-05
3.75835e-05
3.87596e-05
3.99097e-05
4.10178e-05
4.20658e-05
4.30358e-05
4.39119e-05
4.46799e-05
4.53274e-05
4.58439e-05
4.62203e-05
4.64489e-05
4.65236e-05
4.644e-05
4.61954e-05
4.57893e-05
4.5223e-05
4.45003e-05
4.36269e-05
4.26109e-05
4.14623e-05
4.01935e-05
3.88184e-05
3.73528e-05
3.58141e-05
3.42208e-05
3.25924e-05
3.09488e-05
2.931e-05
2.76954e-05
2.61234e-05
2.46105e-05
2.31714e-05
2.18177e-05
2.05585e-05
1.93996e-05
1.83444e-05
1.73935e-05
1.65457e-05
1.57981e-05
1.51471e-05
1.45886e-05
1.41181e-05
1.37313e-05
1.34234e-05
1.31895e-05
1.3024e-05
1.29209e-05
1.28735e-05
1.28751e-05
1.29196e-05
1.30019e-05
1.31191e-05
1.32702e-05
1.34567e-05
1.36819e-05
1.39502e-05
1.42658e-05
1.4631e-05
1.50427e-05
1.54902e-05
1.59508e-05
1.63852e-05
1.67309e-05
1.68864e-05
1.66716e-05
1.56953e-05
1.27465e-05
1.83458e-06
1.67979e-06
1.16169e-05
1.84513e-05
2.33641e-05
2.71399e-05
3.00237e-05
3.21963e-05
3.38433e-05
3.51419e-05
3.62404e-05
3.72458e-05
3.82225e-05
3.91992e-05
4.01785e-05
4.11472e-05
4.2084e-05
4.29652e-05
4.37682e-05
4.44727e-05
4.50615e-05
4.55205e-05
4.58381e-05
4.60052e-05
4.60151e-05
4.58634e-05
4.55478e-05
4.50686e-05
4.44282e-05
4.36316e-05
4.2686e-05
4.1601e-05
4.03883e-05
3.90616e-05
3.76366e-05
3.61305e-05
3.45619e-05
3.29504e-05
3.13163e-05
2.96801e-05
2.80618e-05
2.64803e-05
2.49533e-05
2.34961e-05
2.21215e-05
2.08394e-05
1.96565e-05
1.8577e-05
1.76021e-05
1.67309e-05
1.59611e-05
1.5289e-05
1.47105e-05
1.42213e-05
1.38167e-05
1.34922e-05
1.32426e-05
1.30627e-05
1.29465e-05
1.28874e-05
1.28791e-05
1.29155e-05
1.29917e-05
1.31047e-05
1.32536e-05
1.344e-05
1.36671e-05
1.39395e-05
1.42612e-05
1.46343e-05
1.50556e-05
1.55136e-05
1.59849e-05
1.64295e-05
1.67838e-05
1.69464e-05
1.67378e-05
1.577e-05
1.284e-05
1.86276e-06
1.38176e-06
9.76168e-06
1.5853e-05
2.06486e-05
2.4784e-05
2.83291e-05
3.12505e-05
3.35477e-05
3.52849e-05
3.65793e-05
3.75704e-05
3.83892e-05
3.91372e-05
3.98779e-05
4.06392e-05
4.1421e-05
4.22053e-05
4.29652e-05
4.36715e-05
4.42963e-05
4.48159e-05
4.52107e-05
4.54654e-05
4.55685e-05
4.5512e-05
4.52911e-05
4.49038e-05
4.43512e-05
4.36368e-05
4.2767e-05
4.17505e-05
4.05984e-05
3.93243e-05
3.79433e-05
3.64728e-05
3.49313e-05
3.33387e-05
3.17155e-05
3.00827e-05
2.84608e-05
2.68698e-05
2.53279e-05
2.38516e-05
2.24545e-05
2.11476e-05
1.99387e-05
1.88327e-05
1.78314e-05
1.69347e-05
1.61404e-05
1.54452e-05
1.48449e-05
1.43351e-05
1.39112e-05
1.35684e-05
1.3302e-05
1.31064e-05
1.29759e-05
1.29042e-05
1.2885e-05
1.29125e-05
1.29818e-05
1.309e-05
1.32363e-05
1.34221e-05
1.36507e-05
1.39267e-05
1.42542e-05
1.4635e-05
1.50657e-05
1.55342e-05
1.60162e-05
1.64708e-05
1.68341e-05
1.70043e-05
1.68032e-05
1.58462e-05
1.29392e-05
1.89319e-06
1.16396e-06
8.39884e-06
1.36581e-05
1.7922e-05
2.18645e-05
2.56007e-05
2.90533e-05
3.20901e-05
3.46026e-05
3.65497e-05
3.79712e-05
3.89708e-05
3.96841e-05
4.02433e-05
4.07527e-05
4.12767e-05
4.18404e-05
4.24388e-05
4.30473e-05
4.36323e-05
4.4159e-05
4.45958e-05
4.49168e-05
4.51014e-05
4.51352e-05
4.50081e-05
4.47147e-05
4.42532e-05
4.36254e-05
4.28359e-05
4.18926e-05
4.08059e-05
3.95886e-05
3.82557e-05
3.68244e-05
3.53132e-05
3.37422e-05
3.21323e-05
3.05047e-05
2.88808e-05
2.7281e-05
2.57246e-05
2.4229e-05
2.2809e-05
2.14766e-05
2.02405e-05
1.91065e-05
1.80775e-05
1.71537e-05
1.63333e-05
1.56133e-05
1.49897e-05
1.4458e-05
1.40135e-05
1.36515e-05
1.3367e-05
1.31548e-05
1.30091e-05
1.2924e-05
1.28931e-05
1.2911e-05
1.29728e-05
1.30757e-05
1.32188e-05
1.34035e-05
1.36333e-05
1.39125e-05
1.42455e-05
1.46338e-05
1.50736e-05
1.55523e-05
1.60449e-05
1.65097e-05
1.6882e-05
1.70603e-05
1.68674e-05
1.59226e-05
1.30418e-05
1.92542e-06
9.95243e-07
7.34837e-06
1.18724e-05
1.55316e-05
1.89984e-05
2.24714e-05
2.5961e-05
2.93673e-05
3.25308e-05
3.52848e-05
3.75071e-05
3.91555e-05
4.02762e-05
4.09839e-05
4.14256e-05
4.17413e-05
4.20371e-05
4.23731e-05
4.27662e-05
4.32014e-05
4.3645e-05
4.40567e-05
4.43975e-05
4.4634e-05
4.47405e-05
4.46982e-05
4.44951e-05
4.41248e-05
4.35856e-05
4.288e-05
4.2014e-05
4.09969e-05
3.98409e-05
3.85604e-05
3.71723e-05
3.56953e-05
3.41493e-05
3.25555e-05
3.09358e-05
2.93119e-05
2.77051e-05
2.61355e-05
2.46215e-05
2.31788e-05
2.18208e-05
2.05571e-05
1.93946e-05
1.83368e-05
1.73848e-05
1.65373e-05
1.57915e-05
1.51435e-05
1.45888e-05
1.41227e-05
1.37405e-05
1.34372e-05
1.32076e-05
1.3046e-05
1.29467e-05
1.29036e-05
1.29112e-05
1.29649e-05
1.30619e-05
1.32013e-05
1.33846e-05
1.36151e-05
1.38974e-05
1.42355e-05
1.4631e-05
1.50798e-05
1.55687e-05
1.60718e-05
1.65466e-05
1.6928e-05
1.71144e-05
1.69302e-05
1.59982e-05
1.31456e-05
1.95896e-06
8.59164e-07
6.49287e-06
1.04346e-05
1.35447e-05
1.64858e-05
1.95076e-05
2.26828e-05
2.60031e-05
2.93783e-05
3.26521e-05
3.56332e-05
3.81441e-05
4.00701e-05
4.13902e-05
4.21791e-05
4.25787e-05
4.27539e-05
4.28502e-05
4.29671e-05
4.31508e-05
4.34021e-05
4.36918e-05
4.39763e-05
4.42101e-05
4.4353e-05
4.43733e-05
4.42482e-05
4.39634e-05
4.35115e-05
4.28909e-05
4.21051e-05
4.11614e-05
4.00708e-05
3.88469e-05
3.75063e-05
3.60674e-05
3.45502e-05
3.29761e-05
3.13673e-05
2.97462e-05
2.81348e-05
2.65539e-05
2.50228e-05
2.35587e-05
2.21755e-05
2.08845e-05
1.96933e-05
1.86065e-05
1.76258e-05
1.67504e-05
1.5978e-05
1.53048e-05
1.47264e-05
1.42381e-05
1.3835e-05
1.35122e-05
1.32645e-05
1.30865e-05
1.29724e-05
1.29165e-05
1.29133e-05
1.29584e-05
1.3049e-05
1.31843e-05
1.33657e-05
1.35966e-05
1.38816e-05
1.42247e-05
1.46273e-05
1.50849e-05
1.55838e-05
1.60972e-05
1.6582e-05
1.69723e-05
1.71668e-05
1.69911e-05
1.60723e-05
1.32491e-05
1.99346e-06
7.4939e-07
5.78323e-06
9.26051e-06
1.19362e-05
1.44164e-05
1.69553e-05
1.96889e-05
2.26636e-05
2.58632e-05
2.9215e-05
3.2577e-05
3.57527e-05
3.85314e-05
4.07405e-05
4.22946e-05
4.32186e-05
4.36343e-05
4.37185e-05
4.36499e-05
4.35672e-05
4.35492e-05
4.36167e-05
4.37482e-05
4.38992e-05
4.40192e-05
4.40614e-05
4.39889e-05
4.37749e-05
4.34031e-05
4.28652e-05
4.21601e-05
4.12922e-05
4.02703e-05
3.9107e-05
3.7818e-05
3.64213e-05
3.49369e-05
3.33863e-05
3.17921e-05
3.01769e-05
2.85636e-05
2.69738e-05
2.54278e-05
2.39437e-05
2.25367e-05
2.1219e-05
1.99995e-05
1.88837e-05
1.78741e-05
1.69707e-05
1.61712e-05
1.54724e-05
1.48698e-05
1.43587e-05
1.39343e-05
1.35915e-05
1.33253e-05
1.31303e-05
1.3001e-05
1.29317e-05
1.29173e-05
1.29534e-05
1.30372e-05
1.31679e-05
1.33471e-05
1.35782e-05
1.38656e-05
1.42135e-05
1.4623e-05
1.50893e-05
1.55981e-05
1.61218e-05
1.66163e-05
1.70152e-05
1.72175e-05
1.705e-05
1.61441e-05
1.33507e-05
2.02856e-06
6.63629e-07
5.20731e-06
8.31442e-06
1.06523e-05
1.27752e-05
1.49162e-05
1.72072e-05
1.97414e-05
2.25709e-05
2.56799e-05
2.90122e-05
3.24412e-05
3.5774e-05
3.87808e-05
4.12463e-05
4.30292e-05
4.41038e-05
4.45646e-05
4.45904e-05
4.43859e-05
4.41254e-05
4.39199e-05
4.38114e-05
4.37877e-05
4.3805e-05
4.38083e-05
4.37457e-05
4.35753e-05
4.32675e-05
4.28041e-05
4.21767e-05
4.13846e-05
4.04335e-05
3.9334e-05
3.81003e-05
3.67498e-05
3.53023e-05
3.37792e-05
3.22032e-05
3.05976e-05
2.89856e-05
2.73898e-05
2.58313e-05
2.43293e-05
2.29e-05
2.1557e-05
2.031e-05
1.91658e-05
1.81276e-05
1.7196e-05
1.63695e-05
1.56447e-05
1.50177e-05
1.44836e-05
1.40375e-05
1.36745e-05
1.33895e-05
1.31772e-05
1.30323e-05
1.29494e-05
1.29233e-05
1.29499e-05
1.30265e-05
1.31524e-05
1.33291e-05
1.356e-05
1.38498e-05
1.42023e-05
1.46187e-05
1.50936e-05
1.56121e-05
1.61458e-05
1.66498e-05
1.7057e-05
1.72664e-05
1.71066e-05
1.6213e-05
1.34493e-05
2.06394e-06
5.98835e-07
4.75196e-06
7.56437e-06
9.63888e-06
1.14869e-05
1.33204e-05
1.52582e-05
1.73884e-05
1.97869e-05
2.25136e-05
2.5562e-05
2.88839e-05
3.23664e-05
3.58225e-05
3.90114e-05
4.16869e-05
4.36628e-05
4.4869e-05
4.5372e-05
4.53488e-05
4.50243e-05
4.46038e-05
4.42271e-05
4.39555e-05
4.37854e-05
4.36732e-05
4.35608e-05
4.33917e-05
4.31205e-05
4.27152e-05
4.21568e-05
4.14372e-05
4.05568e-05
3.95228e-05
3.83474e-05
3.70467e-05
3.56399e-05
3.41483e-05
3.25945e-05
3.10021e-05
2.9395e-05
2.77964e-05
2.62283e-05
2.47108e-05
2.32614e-05
2.18946e-05
2.06215e-05
1.94498e-05
1.83836e-05
1.74243e-05
1.65709e-05
1.58204e-05
1.51689e-05
1.46117e-05
1.41439e-05
1.37605e-05
1.34565e-05
1.32268e-05
1.30661e-05
1.29692e-05
1.29312e-05
1.2948e-05
1.30171e-05
1.31379e-05
1.33118e-05
1.35425e-05
1.38344e-05
1.41916e-05
1.46147e-05
1.50983e-05
1.56264e-05
1.617e-05
1.6683e-05
1.70979e-05
1.73138e-05
1.71605e-05
1.62783e-05
1.35439e-05
2.09926e-06
5.51451e-07
4.40081e-06
6.98057e-06
8.85131e-06
1.04902e-05
1.20914e-05
1.37615e-05
1.55786e-05
1.76125e-05
1.99307e-05
2.25936e-05
2.56079e-05
2.89308e-05
3.24586e-05
3.60084e-05
3.93315e-05
4.21588e-05
4.42697e-05
4.55596e-05
4.60734e-05
4.59873e-05
4.55438e-05
4.49744e-05
4.44422e-05
4.40232e-05
4.37191e-05
4.34857e-05
4.32614e-05
4.29864e-05
4.26128e-05
4.21077e-05
4.14522e-05
4.06391e-05
3.96704e-05
3.8555e-05
3.7307e-05
3.59445e-05
3.4488e-05
3.29602e-05
3.1385e-05
2.97864e-05
2.81885e-05
2.66139e-05
2.50837e-05
2.36167e-05
2.22283e-05
2.09308e-05
1.97328e-05
1.86397e-05
1.76535e-05
1.67736e-05
1.59977e-05
1.5322e-05
1.47419e-05
1.42524e-05
1.38488e-05
1.35259e-05
1.32787e-05
1.3102e-05
1.2991e-05
1.29408e-05
1.29477e-05
1.30091e-05
1.31245e-05
1.32956e-05
1.35259e-05
1.38199e-05
1.41817e-05
1.46117e-05
1.51038e-05
1.56415e-05
1.61946e-05
1.67162e-05
1.71381e-05
1.73594e-05
1.72117e-05
1.63396e-05
1.36333e-05
2.13415e-06
5.16083e-07
4.12834e-06
6.52368e-06
8.23557e-06
9.71396e-06
1.11389e-05
1.26066e-05
1.4186e-05
1.59384e-05
1.79251e-05
2.02089e-05
2.28488e-05
2.58585e-05
2.91985e-05
3.27696e-05
3.6389e-05
3.98001e-05
4.27163e-05
4.48927e-05
4.62017e-05
4.66771e-05
4.64995e-05
4.59289e-05
4.52177e-05
4.45455e-05
4.39964e-05
4.3573e-05
4.32286e-05
4.2898e-05
4.25192e-05
4.20432e-05
4.14375e-05
4.06841e-05
3.97778e-05
3.87225e-05
3.7529e-05
3.62135e-05
3.47957e-05
3.32977e-05
3.17433e-05
3.0157e-05
2.85631e-05
2.69854e-05
2.54456e-05
2.39635e-05
2.25558e-05
2.12358e-05
2.00132e-05
1.88943e-05
1.78821e-05
1.69766e-05
1.61758e-05
1.54763e-05
1.48735e-05
1.43627e-05
1.39389e-05
1.35971e-05
1.33324e-05
1.31399e-05
1.30147e-05
1.29522e-05
1.29489e-05
1.30024e-05
1.31124e-05
1.32804e-05
1.35103e-05
1.38064e-05
1.41728e-05
1.46097e-05
1.51105e-05
1.56577e-05
1.62201e-05
1.67497e-05
1.71777e-05
1.74034e-05
1.726e-05
1.63967e-05
1.37172e-05
2.16858e-06
4.88076e-07
3.90842e-06
6.15381e-06
7.73868e-06
9.09091e-06
1.0379e-05
1.16908e-05
1.30879e-05
1.46239e-05
1.63525e-05
1.83306e-05
2.06183e-05
2.3273e-05
2.63081e-05
2.96847e-05
3.33022e-05
3.6973e-05
4.04307e-05
4.33743e-05
4.55436e-05
4.68013e-05
4.7182e-05
4.68788e-05
4.61698e-05
4.53231e-05
4.4527e-05
4.38658e-05
4.33386e-05
4.28938e-05
4.24632e-05
4.19835e-05
4.14061e-05
4.07002e-05
3.985e-05
3.88525e-05
3.77139e-05
3.64474e-05
3.50711e-05
3.36062e-05
3.20762e-05
3.05057e-05
2.89195e-05
2.73419e-05
2.57955e-05
2.43011e-05
2.28763e-05
2.15358e-05
2.02902e-05
1.9147e-05
1.81097e-05
1.71794e-05
1.63543e-05
1.56314e-05
1.50063e-05
1.44744e-05
1.40306e-05
1.36701e-05
1.3388e-05
1.31796e-05
1.304e-05
1.29652e-05
1.29516e-05
1.29971e-05
1.31014e-05
1.32664e-05
1.34957e-05
1.37941e-05
1.41652e-05
1.46091e-05
1.51185e-05
1.5675e-05
1.62464e-05
1.67835e-05
1.72168e-05
1.74459e-05
1.73056e-05
1.64497e-05
1.37956e-05
2.20257e-06
4.64531e-07
3.72216e-06
5.84192e-06
7.32247e-06
8.57288e-06
9.75194e-06
1.09409e-05
1.21951e-05
1.3562e-05
1.50883e-05
1.68245e-05
1.88253e-05
2.11495e-05
2.38524e-05
2.69403e-05
3.03724e-05
3.40406e-05
3.77468e-05
4.1212e-05
4.41231e-05
4.62137e-05
4.73496e-05
4.75798e-05
4.7118e-05
4.6261e-05
4.52872e-05
4.43839e-05
4.36289e-05
4.30126e-05
4.24776e-05
4.19529e-05
4.13754e-05
4.06985e-05
3.9894e-05
3.89493e-05
3.78642e-05
3.66475e-05
3.53148e-05
3.38859e-05
3.23836e-05
3.08323e-05
2.92571e-05
2.76828e-05
2.61328e-05
2.46287e-05
2.31893e-05
2.18303e-05
2.05635e-05
1.93972e-05
1.8336e-05
1.73816e-05
1.65329e-05
1.57871e-05
1.51401e-05
1.45873e-05
1.41238e-05
1.37447e-05
1.34453e-05
1.32209e-05
1.30671e-05
1.29798e-05
1.29558e-05
1.29931e-05
1.30917e-05
1.32535e-05
1.34823e-05
1.37828e-05
1.41588e-05
1.46097e-05
1.51278e-05
1.56936e-05
1.62736e-05
1.68176e-05
1.72554e-05
1.74867e-05
1.73483e-05
1.64985e-05
1.38685e-05
2.23609e-06
4.44488e-07
3.56252e-06
5.57502e-06
6.96799e-06
8.13421e-06
9.22422e-06
1.03137e-05
1.14531e-05
1.26846e-05
1.40494e-05
1.55917e-05
1.73604e-05
1.941e-05
2.17982e-05
2.45776e-05
2.77412e-05
3.12439e-05
3.49642e-05
3.86875e-05
4.21194e-05
4.49379e-05
4.68791e-05
4.78261e-05
4.78554e-05
4.72085e-05
4.62e-05
4.51108e-05
4.41187e-05
4.32875e-05
4.25957e-05
4.19792e-05
4.13655e-05
4.06932e-05
3.99191e-05
3.90188e-05
3.79834e-05
3.68159e-05
3.5528e-05
3.41374e-05
3.26656e-05
3.11367e-05
2.95757e-05
2.80078e-05
2.64571e-05
2.4946e-05
2.34944e-05
2.21189e-05
2.08326e-05
1.96446e-05
1.85607e-05
1.7583e-05
1.67114e-05
1.59432e-05
1.52746e-05
1.47013e-05
1.42183e-05
1.38208e-05
1.35042e-05
1.32639e-05
1.30957e-05
1.29959e-05
1.29613e-05
1.29903e-05
1.30831e-05
1.32416e-05
1.34699e-05
1.37728e-05
1.41536e-05
1.46117e-05
1.51385e-05
1.57135e-05
1.63018e-05
1.6852e-05
1.72934e-05
1.75259e-05
1.7388e-05
1.65432e-05
1.39359e-05
2.26913e-06
4.27687e-07
3.42737e-06
5.34811e-06
6.66688e-06
7.76253e-06
8.77851e-06
9.78583e-06
1.08308e-05
1.19514e-05
1.31841e-05
1.45678e-05
1.6146e-05
1.79678e-05
2.00873e-05
2.25613e-05
2.54374e-05
2.86966e-05
3.22805e-05
3.60483e-05
3.97645e-05
4.31178e-05
4.57815e-05
4.7505e-05
4.82027e-05
4.79905e-05
4.71425e-05
4.59873e-05
4.47993e-05
4.37378e-05
4.28467e-05
4.20907e-05
4.13997e-05
4.07011e-05
3.99368e-05
3.90685e-05
3.80762e-05
3.69553e-05
3.57123e-05
3.43615e-05
3.29227e-05
3.14189e-05
2.98752e-05
2.83167e-05
2.67681e-05
2.52527e-05
2.37913e-05
2.24014e-05
2.10972e-05
1.9889e-05
1.87834e-05
1.77835e-05
1.68896e-05
1.60995e-05
1.54099e-05
1.48163e-05
1.4314e-05
1.38982e-05
1.35645e-05
1.33084e-05
1.31259e-05
1.30134e-05
1.29682e-05
1.29888e-05
1.30756e-05
1.32309e-05
1.34587e-05
1.37639e-05
1.41497e-05
1.46151e-05
1.51506e-05
1.57346e-05
1.63308e-05
1.68866e-05
1.73306e-05
1.75633e-05
1.74249e-05
1.65837e-05
1.3998e-05
2.30173e-06
4.14325e-07
3.31757e-06
5.16074e-06
6.41687e-06
7.4532e-06
8.40715e-06
9.34576e-06
1.03119e-05
1.13399e-05
1.24624e-05
1.37139e-05
1.5133e-05
1.67637e-05
1.86562e-05
2.08654e-05
2.3447e-05
2.64336e-05
2.97986e-05
3.34647e-05
3.72661e-05
4.0942e-05
4.41646e-05
4.66088e-05
4.80501e-05
4.8448e-05
4.79673e-05
4.69154e-05
4.56276e-05
4.43616e-05
4.32501e-05
4.23133e-05
4.15019e-05
4.07414e-05
3.99611e-05
3.91078e-05
3.81488e-05
3.70696e-05
3.58698e-05
3.45593e-05
3.31553e-05
3.16793e-05
3.01555e-05
2.86093e-05
2.70657e-05
2.55486e-05
2.40796e-05
2.26774e-05
2.13571e-05
2.01302e-05
1.90042e-05
1.79829e-05
1.70674e-05
1.6256e-05
1.55457e-05
1.49321e-05
1.44108e-05
1.3977e-05
1.36263e-05
1.33544e-05
1.31576e-05
1.30324e-05
1.29765e-05
1.29886e-05
1.30694e-05
1.32213e-05
1.34486e-05
1.37561e-05
1.41471e-05
1.46199e-05
1.51641e-05
1.57568e-05
1.63605e-05
1.69212e-05
1.7367e-05
1.75987e-05
1.74587e-05
1.66201e-05
1.4055e-05
2.3339e-06
4.04848e-07
3.2356e-06
5.01509e-06
6.21915e-06
7.20604e-06
8.10811e-06
8.98904e-06
9.88878e-06
1.08387e-05
1.18679e-05
1.30071e-05
1.42905e-05
1.57576e-05
1.7454e-05
1.94314e-05
2.17461e-05
2.44516e-05
2.7559e-05
3.10341e-05
3.47748e-05
3.85857e-05
4.21781e-05
4.52108e-05
4.73702e-05
4.84717e-05
4.85328e-05
4.77727e-05
4.65282e-05
4.51304e-05
4.38098e-05
4.26663e-05
4.1695e-05
4.08343e-05
4.00074e-05
3.91478e-05
3.82086e-05
3.71635e-05
3.60035e-05
3.47327e-05
3.33644e-05
3.19181e-05
3.04168e-05
2.88856e-05
2.73496e-05
2.58333e-05
2.43591e-05
2.29467e-05
2.16121e-05
2.0368e-05
1.92226e-05
1.8181e-05
1.72446e-05
1.64126e-05
1.56819e-05
1.50488e-05
1.45087e-05
1.4057e-05
1.36894e-05
1.34019e-05
1.31907e-05
1.30528e-05
1.29861e-05
1.29896e-05
1.30642e-05
1.32128e-05
1.34396e-05
1.37496e-05
1.41458e-05
1.4626e-05
1.51788e-05
1.57802e-05
1.63908e-05
1.69558e-05
1.74024e-05
1.76322e-05
1.74895e-05
1.66525e-05
1.41069e-05
2.36568e-06
3.99832e-07
3.18415e-06
4.91381e-06
6.07578e-06
7.0222e-06
7.8814e-06
8.71429e-06
9.55834e-06
1.04423e-05
1.13924e-05
1.24358e-05
1.36028e-05
1.49284e-05
1.64538e-05
1.82265e-05
2.03003e-05
2.27317e-05
2.55699e-05
2.8806e-05
3.23894e-05
3.61884e-05
3.99736e-05
4.34291e-05
4.62067e-05
4.80172e-05
4.87311e-05
4.84344e-05
4.74013e-05
4.5988e-05
4.45089e-05
4.31575e-05
4.19972e-05
4.09991e-05
4.00923e-05
3.92008e-05
3.8264e-05
3.72425e-05
3.61167e-05
3.48834e-05
3.35509e-05
3.21356e-05
3.06589e-05
2.91451e-05
2.76193e-05
2.61063e-05
2.46293e-05
2.32087e-05
2.18617e-05
2.06017e-05
1.94384e-05
1.83774e-05
1.7421e-05
1.65688e-05
1.58184e-05
1.5166e-05
1.46074e-05
1.41381e-05
1.37538e-05
1.34507e-05
1.32252e-05
1.30745e-05
1.29969e-05
1.29918e-05
1.30602e-05
1.32053e-05
1.34317e-05
1.37442e-05
1.41457e-05
1.46334e-05
1.51949e-05
1.58045e-05
1.64217e-05
1.69901e-05
1.74367e-05
1.76636e-05
1.75173e-05
1.66809e-05
1.41541e-05
2.39708e-06
4.00154e-07
3.16548e-06
4.85889e-06
5.9889e-06
6.90393e-06
7.72921e-06
8.52341e-06
9.32196e-06
1.01514e-05
1.10354e-05
1.19982e-05
1.30664e-05
1.42709e-05
1.56485e-05
1.72423e-05
1.91026e-05
2.12852e-05
2.38471e-05
2.68208e-05
3.0186e-05
3.38665e-05
3.76952e-05
4.14059e-05
4.46588e-05
4.71093e-05
4.85089e-05
4.87983e-05
4.81389e-05
4.68538e-05
4.53049e-05
4.37759e-05
4.24157e-05
4.12502e-05
4.02298e-05
3.9278e-05
3.83228e-05
3.73112e-05
3.62117e-05
3.50119e-05
3.3714e-05
3.23303e-05
3.08798e-05
2.93856e-05
2.78725e-05
2.63653e-05
2.48878e-05
2.34612e-05
2.21036e-05
2.08297e-05
1.96498e-05
1.85706e-05
1.75951e-05
1.67236e-05
1.5954e-05
1.5283e-05
1.47063e-05
1.42197e-05
1.3819e-05
1.35004e-05
1.32607e-05
1.30974e-05
1.3009e-05
1.29951e-05
1.30574e-05
1.31991e-05
1.3425e-05
1.37402e-05
1.41471e-05
1.46423e-05
1.52123e-05
1.583e-05
1.64531e-05
1.70242e-05
1.74698e-05
1.76927e-05
1.75417e-05
1.6705e-05
1.4196e-05
2.42778e-06
4.06969e-07
3.1843e-06
4.85541e-06
5.96384e-06
6.85681e-06
7.65727e-06
8.42221e-06
9.1854e-06
9.97155e-06
1.08022e-05
1.16989e-05
1.26853e-05
1.37884e-05
1.50406e-05
1.64805e-05
1.81539e-05
2.01139e-05
2.2418e-05
2.51213e-05
2.82332e-05
3.1721e-05
3.54754e-05
3.9289e-05
4.28592e-05
4.58295e-05
4.78746e-05
4.88054e-05
4.86469e-05
4.76368e-05
4.61349e-05
4.44909e-05
4.2944e-05
4.15936e-05
4.04306e-05
3.93895e-05
3.83925e-05
3.73742e-05
3.62905e-05
3.51185e-05
3.38526e-05
3.25001e-05
3.10769e-05
2.96041e-05
2.81059e-05
2.6607e-05
2.51314e-05
2.37011e-05
2.23353e-05
2.10492e-05
1.98545e-05
1.87585e-05
1.77652e-05
1.68753e-05
1.60875e-05
1.53984e-05
1.48043e-05
1.43009e-05
1.38841e-05
1.35505e-05
1.32969e-05
1.31211e-05
1.30219e-05
1.29995e-05
1.30557e-05
1.31941e-05
1.34198e-05
1.37378e-05
1.41502e-05
1.46531e-05
1.52316e-05
1.5857e-05
1.64854e-05
1.70582e-05
1.75017e-05
1.77195e-05
1.75627e-05
1.67246e-05
1.42323e-05
2.45748e-06
4.20714e-07
3.24101e-06
4.90373e-06
6.00115e-06
6.88153e-06
7.66645e-06
8.41168e-06
9.14972e-06
9.90383e-06
1.06938e-05
1.15389e-05
1.246e-05
1.34808e-05
1.46298e-05
1.59409e-05
1.74553e-05
1.92214e-05
2.12948e-05
2.37338e-05
2.65817e-05
2.9833e-05
3.34277e-05
3.72178e-05
4.09527e-05
4.42972e-05
4.68917e-05
4.84507e-05
4.88654e-05
4.82547e-05
4.69255e-05
4.52551e-05
4.35609e-05
4.2026e-05
4.06996e-05
3.95425e-05
3.84795e-05
3.7436e-05
3.63554e-05
3.52035e-05
3.39656e-05
3.26429e-05
3.12472e-05
2.97973e-05
2.8316e-05
2.68277e-05
2.53566e-05
2.39252e-05
2.25533e-05
2.12573e-05
2.00496e-05
1.89386e-05
1.79289e-05
1.7022e-05
1.62169e-05
1.55109e-05
1.49001e-05
1.43806e-05
1.39484e-05
1.36002e-05
1.33331e-05
1.31452e-05
1.30356e-05
1.30048e-05
1.30551e-05
1.31905e-05
1.34162e-05
1.37372e-05
1.41556e-05
1.46662e-05
1.52531e-05
1.58857e-05
1.65187e-05
1.70923e-05
1.75325e-05
1.77439e-05
1.75801e-05
1.67395e-05
1.42625e-05
2.48586e-06
4.41398e-07
3.33286e-06
5.00053e-06
6.09732e-06
6.97451e-06
7.75308e-06
8.48807e-06
9.21108e-06
9.94425e-06
1.07059e-05
1.15135e-05
1.23856e-05
1.3343e-05
1.44104e-05
1.56177e-05
1.70012e-05
1.86045e-05
2.04789e-05
2.26816e-05
2.52694e-05
2.82641e-05
3.16442e-05
3.53143e-05
3.90809e-05
4.26506e-05
4.56651e-05
4.77816e-05
4.878e-05
4.86503e-05
4.76078e-05
4.60119e-05
4.42317e-05
4.25323e-05
4.10343e-05
3.97402e-05
3.85884e-05
3.75004e-05
3.64087e-05
3.52674e-05
3.40522e-05
3.27568e-05
3.13882e-05
2.99619e-05
2.84993e-05
2.70238e-05
2.55595e-05
2.41295e-05
2.27541e-05
2.14505e-05
2.02321e-05
1.9108e-05
1.80837e-05
1.71614e-05
1.63405e-05
1.56185e-05
1.49922e-05
1.44575e-05
1.40107e-05
1.36486e-05
1.33687e-05
1.31691e-05
1.30496e-05
1.30108e-05
1.30557e-05
1.31884e-05
1.34145e-05
1.3739e-05
1.41635e-05
1.46821e-05
1.52772e-05
1.59167e-05
1.65534e-05
1.71266e-05
1.75622e-05
1.77658e-05
1.75938e-05
1.67493e-05
1.4286e-05
2.51253e-06
4.68973e-07
3.45586e-06
5.14107e-06
6.24745e-06
7.13077e-06
7.91214e-06
8.64629e-06
9.36427e-06
1.00874e-05
1.08328e-05
1.16166e-05
1.24553e-05
1.33673e-05
1.43742e-05
1.5502e-05
1.67825e-05
1.82542e-05
1.99636e-05
2.1964e-05
2.43132e-05
2.7055e-05
3.01948e-05
3.36808e-05
3.7374e-05
4.10327e-05
4.43256e-05
4.6889e-05
4.84243e-05
4.88037e-05
4.81297e-05
4.67043e-05
4.49125e-05
4.30864e-05
4.1423e-05
3.99795e-05
3.87197e-05
3.75687e-05
3.64513e-05
3.53103e-05
3.41112e-05
3.28395e-05
3.14965e-05
3.00942e-05
2.86514e-05
2.71906e-05
2.57357e-05
2.43096e-05
2.29334e-05
2.16248e-05
2.03981e-05
1.92632e-05
1.82265e-05
1.72906e-05
1.64555e-05
1.57193e-05
1.50786e-05
1.453e-05
1.40697e-05
1.36947e-05
1.34027e-05
1.31923e-05
1.30634e-05
1.30173e-05
1.30572e-05
1.31878e-05
1.34149e-05
1.37435e-05
1.41747e-05
1.47014e-05
1.53047e-05
1.59505e-05
1.659e-05
1.71615e-05
1.75909e-05
1.77853e-05
1.76034e-05
1.67535e-05
1.4302e-05
2.53693e-06
5.03615e-07
3.60772e-06
5.32264e-06
6.4487e-06
7.34747e-06
8.14079e-06
8.88346e-06
9.60628e-06
1.033e-05
1.1071e-05
1.18441e-05
1.26644e-05
1.35481e-05
1.45143e-05
1.55858e-05
1.67901e-05