/*--------------------------------*- C++ -*----------------------------------*\
  =========                 |
  \\      /  F ield         | OpenFOAM: The Open Source CFD Toolbox
   \\    /   O peration     | Website:  https://openfoam.org
    \\  /    A nd           | Version:  7
     \\/     M anipulation  |
\*---------------------------------------------------------------------------*/
FoamFile
{
    version     2.0;
    format      ascii;
    class       volScalarField;
    location    "20000";
    object      nut;
}
// * * * * * * * * * * * * * * * * * * * * * * * * * * * * * * * * * * * * * //

dimensions      [0 2 -1 0 0 0 0];

internalField   nonuniform List<scalar> 
10981
(
4.13507e-07
1.34845e-05
2.64719e-05
4.06901e-05
5.79686e-05
7.9648e-05
0.000106504
0.000138756
0.000176192
0.000218341
0.000264598
0.000314309
0.000366805
0.000421421
0.000477494
0.000534368
0.000591387
0.000647895
0.000703241
0.000756778
0.000807875
0.00085592
0.000900337
0.000940595
0.000976221
0.00100682
0.00103207
0.00105176
0.00106578
0.00107415
0.00107697
0.00107451
0.00106709
0.00105516
0.00103925
0.00101989
0.000997673
0.000973143
0.000946802
0.000919063
0.000890227
0.000860464
0.000829808
0.000798165
0.000765337
0.000731072
0.00069513
0.000657352
0.000617742
0.00057652
0.000534147
0.000491305
0.000448823
0.000407577
0.000368368
0.00033182
0.000298317
0.000267985
0.000240727
0.000216286
0.000194317
0.000174453
0.000156357
0.000139752
0.000124434
0.000110268
9.71814e-05
8.51381e-05
7.41213e-05
6.41088e-05
5.50546e-05
4.68772e-05
3.94563e-05
3.26364e-05
2.62341e-05
2.00402e-05
1.37978e-05
7.08159e-06
1.39999e-07
4.06902e-07
1.35829e-05
2.70064e-05
4.1494e-05
5.85967e-05
7.9575e-05
0.000105161
0.000135728
0.000171244
0.000211389
0.000255666
0.000303494
0.000354253
0.000407309
0.000462024
0.000517758
0.000573868
0.00062971
0.000684639
0.000738012
0.000789197
0.000837578
0.000882566
0.000923613
0.000960224
0.000991972
0.00101851
0.00103959
0.00105507
0.00106491
0.00106921
0.00106816
0.00106208
0.00105139
0.00103658
0.00101819
0.0009968
0.000972951
0.000947154
0.000919836
0.000891316
0.000861782
0.000831287
0.000799754
0.000767001
0.000732788
0.00069688
0.000659121
0.000619515
0.000578278
0.000535865
0.000492953
0.00045037
0.000408992
0.000369622
0.000332893
0.000299193
0.000268661
0.000241207
0.000216581
0.000194443
0.000174432
0.000156214
0.000139513
0.000124127
0.000109922
9.68239e-05
8.47947e-05
7.38139e-05
6.38536e-05
5.48606e-05
4.67457e-05
3.93814e-05
3.26068e-05
2.62353e-05
2.00584e-05
1.38196e-05
7.0953e-06
1.40466e-07
3.99321e-07
1.35918e-05
2.73567e-05
4.2197e-05
5.93583e-05
7.99193e-05
0.000104653
0.000133987
0.000168007
0.000206516
0.000249028
0.000295069
0.000344093
0.000395523
0.000448759
0.000503194
0.000558208
0.000613177
0.000667471
0.000720458
0.000771509
0.000820008
0.000865361
0.000907005
0.000944428
0.000977178
0.00100488
0.00102725
0.0010441
0.00105536
0.00106109
0.00106145
0.00105672
0.00104728
0.00103361
0.00101624
0.000995712
0.000972589
0.000947382
0.000920527
0.000892359
0.000863084
0.000832775
0.000801371
0.000768708
0.000734556
0.000698688
0.000660954
0.000621354
0.000580101
0.000537646
0.000494662
0.000451974
0.000410457
0.00037092
0.000334001
0.000300098
0.000269358
0.0002417
0.000216883
0.000194572
0.000174411
0.000156067
0.00013927
0.000123816
0.000109573
9.64646e-05
8.44524e-05
7.35107e-05
6.36052e-05
5.46755e-05
4.66241e-05
3.93163e-05
3.25859e-05
2.62443e-05
2.00826e-05
1.38447e-05
7.10992e-06
1.40936e-07
3.66376e-07
1.30664e-05
2.6599e-05
4.14266e-05
5.84723e-05
7.85897e-05
0.000102476
0.000130574
0.000163044
0.000199789
0.000240499
0.000284759
0.00033208
0.000381927
0.000433739
0.000486933
0.000540915
0.000595077
0.000648802
0.000701467
0.000752449
0.000801132
0.000846914
0.000889223
0.000927528
0.000961352
0.000990292
0.00101403
0.00103234
0.00104513
0.00105239
0.00105425
0.00105097
0.00104289
0.00103046
0.00101419
0.000994619
0.0009723
0.000947748
0.000921413
0.000893644
0.000864669
0.000834578
0.000803334
0.000770787
0.000736721
0.000700917
0.000663227
0.000623649
0.000582391
0.000539898
0.000496835
0.000454025
0.000412344
0.000372607
0.000335459
0.000301313
0.000270324
0.000242426
0.000217384
0.000194871
0.000174534
0.000156045
0.000139134
0.000123599
0.000109307
9.6181e-05
8.41785e-05
7.32693e-05
6.34127e-05
5.45402e-05
4.65465e-05
3.92896e-05
3.25986e-05
2.6282e-05
2.0129e-05
1.38853e-05
7.133e-06
1.41723e-07
3.365e-07
1.2344e-05
2.52308e-05
3.95435e-05
5.60565e-05
7.54279e-05
9.82383e-05
0.000124911
0.000155662
0.000190494
0.000229228
0.000271545
0.000317031
0.000365209
0.000415554
0.000467513
0.000520507
0.000573943
0.000627211
0.000679691
0.00073076
0.000779795
0.000826187
0.000869348
0.000908726
0.00094382
0.000974195
0.000999497
0.00101947
0.00103396
0.00104294
0.00104649
0.00104483
0.00103826
0.00102722
0.00101218
0.000993674
0.000972255
0.000948442
0.000922694
0.00089538
0.000866747
0.000836911
0.000805856
0.000773452
0.000739497
0.000703781
0.000666156
0.000626617
0.000585362
0.000542828
0.000499671
0.000456711
0.000414826
0.000374839
0.000337407
0.000302959
0.000271666
0.000243474
0.00021816
0.000195404
0.000174858
0.000156197
0.000139149
0.000123514
0.000109157
9.59998e-05
8.39955e-05
7.31087e-05
6.32916e-05
5.44677e-05
4.65233e-05
3.93096e-05
3.26504e-05
2.6351e-05
2.01997e-05
1.39436e-05
7.16725e-06
1.43007e-07
2.9687e-07
1.13483e-05
2.33116e-05
3.65691e-05
5.19396e-05
7.00015e-05
9.12493e-05
0.000116076
0.000144736
0.000177321
0.000213764
0.00025386
0.000297286
0.000343633
0.000392424
0.000443135
0.000495201
0.000548034
0.000601023
0.00065354
0.000704952
0.000754624
0.000801926
0.00084625
0.000887019
0.000923701
0.000955827
0.000983005
0.00100494
0.00102143
0.0010324
0.0010379
0.0010381
0.00103327
0.00102381
0.00101018
0.000992904
0.00097252
0.000949556
0.000924486
0.000897698
0.000869467
0.000839935
0.000809111
0.000776888
0.000743081
0.000707487
0.000669959
0.000630484
0.000589249
0.000546675
0.00050341
0.000460267
0.000418127
0.000377825
0.000340037
0.000305209
0.000273536
0.000244979
0.000219329
0.000196275
0.000175472
0.000156598
0.00013938
0.000123618
0.000109173
9.59638e-05
8.39398e-05
7.30594e-05
6.32675e-05
5.44789e-05
4.65719e-05
3.93903e-05
3.27525e-05
2.6461e-05
2.03028e-05
1.40261e-05
7.21746e-06
1.44958e-07
2.47448e-07
1.02329e-05
2.12888e-05
3.31433e-05
4.67502e-05
6.27606e-05
8.16943e-05
0.000103968
0.000129889
0.000159637
0.000193256
0.000230655
0.00027162
0.000315826
0.000362854
0.000412213
0.000463357
0.000515691
0.000568591
0.000621413
0.000673494
0.000724172
0.000772789
0.000818701
0.000861296
0.000900006
0.000934318
0.000963799
0.000988102
0.00100699
0.00102033
0.00102813
0.00103052
0.00102773
0.00102012
0.00100814
0.000992292
0.000973117
0.000951146
0.000926873
0.000900708
0.000872955
0.000843788
0.000813249
0.000781255
0.000747642
0.000712215
0.000674827
0.000635452
0.00059426
0.000551656
0.000508269
0.000464907
0.000422457
0.000381764
0.000343531
0.000308229
0.00027608
0.000247069
0.000221002
0.000197579
0.000176459
0.000157321
0.000139891
0.000123964
0.0001094
9.61116e-05
8.40439e-05
7.31485e-05
6.33624e-05
5.4592e-05
4.67069e-05
3.95438e-05
3.29154e-05
2.66207e-05
2.04457e-05
1.4139e-05
7.28826e-06
1.47782e-07
1.93129e-07
9.19485e-06
1.9759e-05
3.03785e-05
4.20418e-05
5.55015e-05
7.13917e-05
9.02527e-05
0.000112523
0.000138526
0.000168453
0.000202357
0.000240153
0.00028162
0.000326419
0.000374104
0.000424146
0.000475946
0.000528855
0.00058219
0.000635247
0.000687315
0.000737684
0.000785663
0.000830588
0.00087184
0.000908856
0.00094115
0.000968322
0.000990081
0.00100625
0.00101678
0.00102174
0.00102135
0.00101592
0.00100588
0.000991714
0.000973962
0.000953165
0.000929835
0.000904412
0.000877233
0.00084851
0.000818321
0.000786616
0.000753253
0.000718047
0.000680848
0.000641618
0.000600505
0.000557885
0.000514372
0.000470761
0.000427943
0.000386783
0.000348009
0.000312131
0.000279402
0.000249836
0.00022326
0.000199385
0.000177879
0.000158416
0.000140723
0.000124588
0.000109868
9.64681e-05
8.43281e-05
7.33924e-05
6.35896e-05
5.48175e-05
4.69372e-05
3.97775e-05
3.31454e-05
2.68359e-05
2.06333e-05
1.42864e-05
7.38316e-06
1.51644e-07
1.4424e-07
8.42326e-06
1.9158e-05
2.92162e-05
3.94887e-05
5.07169e-05
6.35686e-05
7.86816e-05
9.66533e-05
0.000118012
0.000143179
0.000172441
0.000205923
0.00024358
0.000285204
0.000330432
0.000378774
0.000429632
0.000482327
0.000536124
0.000590255
0.000643934
0.000696377
0.000746818
0.000794521
0.000838797
0.000879018
0.00091463
0.000945173
0.000970293
0.000989757
0.00100346
0.00101142
0.00101382
0.00101092
0.00100313
0.000990923
0.000974835
0.000955418
0.000933202
0.000908659
0.000882166
0.000853978
0.000824214
0.000792862
0.000759806
0.000724876
0.000687921
0.000648884
0.000607888
0.00056528
0.000521645
0.000477767
0.000434538
0.000392844
0.000353447
0.000316897
0.000283489
0.00025327
0.000226095
0.000201688
0.000179723
0.000159876
0.000141868
0.000125482
0.000110567
9.7024e-05
8.47834e-05
7.37825e-05
6.39416e-05
5.51491e-05
4.72574e-05
4.00871e-05
3.34391e-05
2.71041e-05
2.08643e-05
1.44679e-05
7.50254e-06
1.56582e-07
1.09279e-07
7.96518e-06
1.94858e-05
2.97484e-05
3.95042e-05
4.94522e-05
6.01784e-05
7.22654e-05
8.63287e-05
0.000103007
0.000122927
0.000146645
0.000174596
0.000207043
0.000244042
0.000285432
0.000330847
0.000379746
0.000431444
0.000485154
0.000540026
0.000595176
0.000649713
0.000702765
0.000753492
0.000801111
0.000844901
0.000884229
0.000918556
0.000947456
0.000970628
0.000987903
0.000999255
0.0010048
0.00100477
0.000999545
0.00098958
0.000975407
0.000957584
0.000936666
0.000913157
0.000887475
0.000859922
0.000830664
0.000799732
0.000767041
0.00073244
0.000695777
0.000656981
0.000616144
0.000573578
0.00052984
0.000485693
0.000442032
0.000399762
0.000359682
0.000322388
0.000288221
0.00025727
0.000229418
0.000204409
0.000181924
0.00016164
0.000143271
0.000126596
0.000111454
9.77398e-05
8.53752e-05
7.42891e-05
6.43927e-05
5.55653e-05
4.76497e-05
4.04583e-05
3.37851e-05
2.74164e-05
2.11316e-05
1.46784e-05
7.64335e-06
1.62491e-07
8.61948e-08
7.58775e-06
2.01789e-05
3.12634e-05
4.12213e-05
5.07859e-05
6.05e-05
7.08257e-05
8.22476e-05
9.53242e-05
0.000110694
0.000129046
0.000151062
0.000177342
0.000208328
0.000244234
0.000285004
0.000330309
0.000379572
0.000432019
0.000486736
0.00054273
0.000598974
0.00065445
0.000708177
0.000759236
0.000806787
0.000850085
0.000888493
0.000921497
0.000948714
0.000969906
0.000984982
0.000994
0.000997161
0.000994796
0.000987348
0.000975337
0.000959332
0.000939905
0.000917595
0.000892861
0.000866055
0.000837393
0.000806952
0.000774687
0.000740467
0.000704146
0.000665637
0.000625003
0.00058252
0.000538709
0.000494311
0.000450216
0.000407351
0.000366552
0.000328464
0.000293479
0.000261733
0.000233142
0.000207473
0.000184416
0.000163648
0.000144881
0.000127883
0.000112488
9.85796e-05
8.60721e-05
7.48851e-05
6.49205e-05
5.60474e-05
4.80988e-05
4.08785e-05
3.41734e-05
2.77646e-05
2.14291e-05
1.49133e-05
7.80203e-06
1.69256e-07
7.06735e-08
7.17108e-06
2.06941e-05
3.30098e-05
4.37155e-05
5.34926e-05
6.29467e-05
7.25271e-05
8.26045e-05
9.35668e-05
0.000105889
0.000120167
0.000137105
0.000157468
0.000182005
0.000211344
0.00024589
0.000285743
0.000330658
0.00038006
0.000433095
0.000488716
0.000545766
0.000603056
0.000659419
0.000713751
0.000765046
0.000812408
0.00085507
0.000892404
0.000923928
0.000949319
0.000968412
0.000981202
0.000987839
0.000988616
0.00098395
0.00097435
0.000960387
0.000942653
0.000921715
0.000898078
0.00087214
0.000844172
0.000814303
0.000782527
0.000748742
0.000712811
0.000674637
0.000634253
0.000591898
0.000548053
0.000503434
0.000458924
0.000415465
0.00037393
0.000335016
0.000299171
0.000266581
0.000237201
0.000210824
0.000187149
0.000165858
0.000146658
0.00012931
0.000113638
9.95164e-05
8.68509e-05
7.5551e-05
6.55084e-05
5.65816e-05
4.85936e-05
4.13388e-05
3.45967e-05
2.81432e-05
2.17522e-05
1.51688e-05
7.97549e-06
1.76788e-07
5.97044e-08
6.72339e-06
2.07922e-05
3.4435e-05
4.63037e-05
5.67728e-05
6.64395e-05
7.58321e-05
8.53521e-05
9.53128e-05
0.00010602
0.000117859
0.000131348
0.000147166
0.000166117
0.00018906
0.000216791
0.000249912
0.000288706
0.000333049
0.000382401
0.000435852
0.000492225
0.000550192
0.000608385
0.000665473
0.000720225
0.000771542
0.000818479
0.000860256
0.000896265
0.000926073
0.000949426
0.000966246
0.000976623
0.000980804
0.000979173
0.000972225
0.00096053
0.000944692
0.000925309
0.000902923
0.000877985
0.000850818
0.000821604
0.000790386
0.000757093
0.000721602
0.00068381
0.000643724
0.000601545
0.000557714
0.000512915
0.000468019
0.000423981
0.000381711
0.000341956
0.000305223
0.000271752
0.000241543
0.000214414
0.000190083
0.000168234
0.000148571
0.000130848
0.000114879
0.00010053
8.76938e-05
7.62716e-05
6.61437e-05
5.71578e-05
4.91257e-05
4.18324e-05
3.50496e-05
2.85477e-05
2.20972e-05
1.54417e-05
8.16114e-06
1.85012e-07
5.16104e-08
6.28017e-06
2.04679e-05
3.52017e-05
4.84356e-05
6.00038e-05
7.03235e-05
7.99203e-05
8.92816e-05
9.87908e-05
0.000108732
0.000119351
0.000130944
0.000143944
0.000158971
0.000176832
0.000198455
0.000224778
0.000256583
0.000294339
0.000338061
0.000387266
0.000441004
0.000497976
0.000556681
0.000615567
0.000673137
0.00072803
0.000779062
0.000825248
0.00086581
0.000900175
0.000927975
0.000949041
0.000963389
0.000971213
0.000972857
0.000968794
0.000959587
0.00094585
0.000928205
0.000907232
0.00088343
0.000857178
0.000828712
0.000798123
0.000765382
0.000730382
0.000693019
0.00065328
0.000611327
0.000567561
0.00052263
0.000477389
0.000432801
0.000389808
0.00034921
0.000311573
0.000277195
0.000246122
0.000218208
0.000193187
0.00017075
0.000150598
0.000132478
0.000116195
0.000101603
8.85873e-05
7.70355e-05
6.68172e-05
5.77681e-05
4.9689e-05
4.23544e-05
3.55281e-05
2.89746e-05
2.24612e-05
1.57295e-05
8.35693e-06
1.93868e-07
4.56504e-08
5.88554e-06
1.99379e-05
3.53652e-05
4.9826e-05
6.2754e-05
7.41285e-05
8.43269e-05
9.3863e-05
0.000103205
0.000112734
0.000122722
0.000133372
0.000144908
0.000157673
0.000172213
0.00018931
0.000209935
0.000235137
0.000265858
0.000302735
0.00034592
0.000394986
0.000448949
0.000506391
0.000565642
0.000624966
0.000682708
0.000737386
0.000787748
0.000832787
0.000871743
0.0009041
0.000929571
0.000948082
0.000959757
0.000964893
0.000963932
0.000957424
0.000945988
0.000930264
0.000910868
0.000888344
0.000863124
0.000835502
0.00080562
0.000773491
0.000739034
0.000702148
0.000662804
0.000621129
0.000577481
0.000532471
0.000486933
0.000441833
0.000398141
0.000356709
0.000318163
0.000282861
0.000250901
0.000222173
0.000196434
0.000173381
0.000152717
0.000134181
0.000117569
0.000102724
8.95197e-05
7.78331e-05
6.75209e-05
5.84064e-05
5.02782e-05
4.29006e-05
3.60287e-05
2.94212e-05
2.28416e-05
1.603e-05
8.56109e-06
2.03307e-07
4.14983e-08
5.57137e-06
1.93906e-05
3.52101e-05
5.05849e-05
6.4741e-05
7.74312e-05
8.86809e-05
9.87802e-05
0.000108262
0.000117594
0.000127163
0.000137243
0.000148009
0.000159623
0.000172346
0.000186649
0.000203275
0.000223221
0.000247623
0.00027756
0.000313816
0.000356653
0.000405686
0.000459881
0.000517695
0.00057729
0.000636761
0.000694308
0.000748352
0.000797594
0.000841032
0.00087795
0.000907909
0.000930717
0.000946411
0.000955226
0.000957561
0.000953948
0.000945001
0.000931376
0.000913718
0.000892613
0.000868547
0.000841867
0.000812772
0.000781318
0.000747456
0.000711095
0.000672192
0.000630844
0.000587368
0.000542336
0.000496555
0.000450988
0.000406633
0.000364386
0.000324935
0.000288702
0.000255838
0.000226274
0.000199793
0.000176103
0.000154907
0.000135939
0.000118985
0.000103878
9.04803e-05
7.86555e-05
6.82476e-05
5.90667e-05
5.08888e-05
4.34671e-05
3.65481e-05
2.98845e-05
2.3236e-05
1.6341e-05
8.77198e-06
2.13272e-07
3.88982e-08
5.35435e-06
1.89591e-05
3.50123e-05
5.10697e-05
6.62431e-05
8.01468e-05
9.26464e-05
0.000103788
0.000113791
0.000123203
0.000132523
0.000142147
0.00015235
0.000163287
0.00017507
0.000187887
0.000202139
0.000218535
0.000238087
0.000262011
0.0002915
0.000327453
0.00037021
0.000419385
0.000473866
0.000531971
0.000591696
0.000650981
0.00070791
0.000760841
0.000808463
0.000849808
0.000884234
0.000911397
0.00093122
0.000943855
0.000949649
0.000949101
0.000942815
0.000931455
0.000915689
0.000896143
0.000873349
0.000847712
0.000819484
0.00078877
0.000755555
0.000719765
0.000681348
0.000640375
0.000597124
0.000552125
0.000506158
0.000460177
0.000415201
0.000372169
0.000331828
0.000294665
0.000260889
0.000230476
0.000203234
0.00017889
0.000157145
0.000137732
0.000120427
0.000105053
9.14579e-05
7.94937e-05
6.899e-05
5.97431e-05
5.15159e-05
4.40501e-05
3.70832e-05
3.03618e-05
2.3642e-05
1.66605e-05
8.98795e-06
2.23698e-07
3.76085e-08
5.23505e-06
1.87038e-05
3.49296e-05
5.15185e-05
6.75274e-05
8.2484e-05
9.61524e-05
0.000108462
0.000119477
0.000129404
0.000138763
0.000148091
0.000157795
0.00016815
0.000179296
0.0001913
0.000204293
0.000218621
0.000234967
0.00025437
0.000278118
0.000307505
0.000343509
0.000386493
0.000436021
0.000490859
0.000549164
0.000608771
0.00066749
0.000723326
0.000774618
0.000820084
0.000858827
0.000890306
0.000914294
0.000930838
0.000940211
0.000942867
0.000939391
0.000930444
0.000916714
0.000898858
0.000877454
0.000852958
0.000825678
0.000795769
0.000763253
0.000728076
0.000690187
0.000649634
0.000606658
0.000561748
0.000515652
0.000469314
0.000423765
0.000379985
0.000338779
0.000300698
0.00026601
0.000234738
0.000206726
0.000181713
0.000159409
0.000139542
0.00012188
0.000106234
9.24416e-05
8.03387e-05
6.97411e-05
6.04302e-05
5.21551e-05
4.46457e-05
3.76306e-05
3.08501e-05
2.40569e-05
1.69863e-05
9.20732e-06
2.34508e-07
3.70404e-08
5.17484e-06
1.85697e-05
3.49487e-05
5.19816e-05
6.87011e-05
8.45795e-05
9.93088e-05
0.000112738
0.000124844
0.000135719
0.000145574
0.000154912
0.000164289
0.000174116
0.000184661
0.000196045
0.000208299
0.00022151
0.000235987
0.00025241
0.000271861
0.000295708
0.000325321
0.000361722
0.000405236
0.000455315
0.000510555
0.00056893
0.000628126
0.000685856
0.000740096
0.000789209
0.000831989
0.000867645
0.000895763
0.000916249
0.000929283
0.000935255
0.000934715
0.000928316
0.000916755
0.000900714
0.000880813
0.000857557
0.000831307
0.000802269
0.000770505
0.000735987
0.000698667
0.000658577
0.000615924
0.000571158
0.000524992
0.000478354
0.000432284
0.000387798
0.000345756
0.000306772
0.000271177
0.000239045
0.000210253
0.000184562
0.00016169
0.000141361
0.000123337
0.000107418
9.34278e-05
8.1188e-05
7.04989e-05
6.11264e-05
5.28052e-05
4.52531e-05
3.81896e-05
3.13487e-05
2.448e-05
1.73174e-05
9.42918e-06
2.45666e-07
3.67899e-08
5.14215e-06
1.84894e-05
3.49979e-05
5.24057e-05
6.97389e-05
8.64333e-05
0.000102127
0.000116605
0.000129778
0.000141667
0.000152392
0.000162178
0.000171535
0.00018102
0.000191028
0.000201812
0.000213467
0.00022599
0.000239434
0.0002541
0.000270691
0.000290357
0.000314548
0.000344697
0.000381813
0.000426124
0.0004769
0.000532523
0.000590778
0.000649217
0.000705501
0.000757625
0.000804032
0.000843631
0.00087577
0.000900183
0.000916921
0.000926293
0.000928798
0.000925068
0.000915798
0.000901694
0.000883408
0.00086149
0.000836354
0.000808254
0.000777299
0.000743486
0.000706777
0.000667193
0.00062491
0.00058034
0.000534161
0.00048728
0.000440743
0.000395595
0.000352749
0.000312882
0.000276387
0.000243392
0.000213814
0.000187437
0.000163987
0.00014319
0.0001248
0.000108606
9.44179e-05
8.2043e-05
7.12648e-05
6.1833e-05
5.34673e-05
4.58731e-05
3.87606e-05
3.18578e-05
2.49111e-05
1.76539e-05
9.65327e-06
2.57169e-07
3.66888e-08
5.12041e-06
1.84204e-05
3.50212e-05
5.27353e-05
7.05947e-05
8.80129e-05
0.000104587
0.000120049
0.000134248
0.000147147
0.000158809
0.000169381
0.000179108
0.000188538
0.000198196
0.000208451
0.000219528
0.000231483
0.000244283
0.000257961
0.000272835
0.000289668
0.000309702
0.000334474
0.000365449
0.000403569
0.000448888
0.000500433
0.000556339
0.000614201
0.000671477
0.000725824
0.000775314
0.000818514
0.000854489
0.000882753
0.000903198
0.000916024
0.000921663
0.000920707
0.000913845
0.000901792
0.000885228
0.000864746
0.000840808
0.000813718
0.000783627
0.000750567
0.000714512
0.000675476
0.000633609
0.000589287
0.000543151
0.000496086
0.000449134
0.00040337
0.000359753
0.000319023
0.000281638
0.000247781
0.000217411
0.000190339
0.000166303
0.00014503
0.00012627
0.000109799
9.54136e-05
8.29053e-05
7.20404e-05
6.25514e-05
5.41426e-05
4.65066e-05
3.93442e-05
3.23778e-05
2.53506e-05
1.79955e-05
9.87951e-06
2.69024e-07
3.67027e-08
5.10553e-06
1.83499e-05
3.5002e-05
5.29552e-05
7.12585e-05
8.93149e-05
0.000106692
0.000123077
0.000138266
0.000152163
0.000164777
0.000176208
0.000186633
0.000196313
0.000205874
0.000215768
0.000226333
0.000237747
0.000250022
0.000263091
0.00027699
0.000292083
0.000309229
0.000329788
0.000355379
0.000387459
0.000426831
0.000473299
0.00052559
0.000581578
0.000638691
0.000694339
0.000746237
0.000792585
0.000832121
0.000864096
0.000888204
0.000904506
0.000913342
0.000915252
0.000910901
0.000901005
0.000886268
0.000867318
0.000844662
0.000818652
0.000789486
0.000757228
0.000721871
0.000683425
0.00064202
0.000597996
0.000551957
0.000504762
0.000457451
0.000411116
0.000366764
0.000325193
0.000286928
0.000252211
0.000221044
0.000193269
0.000168639
0.000146885
0.000127749
0.000110999
9.64171e-05
8.37771e-05
7.28276e-05
6.32833e-05
5.48324e-05
4.71546e-05
3.99413e-05
3.2909e-05
2.57986e-05
1.83425e-05
1.0108e-05
2.81242e-07
3.68371e-08
5.09717e-06
1.82757e-05
3.49398e-05
5.30698e-05
7.17411e-05
9.03562e-05
0.000108464
0.000125716
0.000141859
0.000156743
0.00017032
0.000182643
0.00019385
0.000204144
0.000213813
0.000223533
0.000233712
0.000244632
0.000256411
0.000269005
0.00028232
0.000296415
0.000311739
0.000329284
0.000350542
0.000377201
0.000410647
0.000451465
0.000499132
0.000552039
0.000607802
0.000663728
0.000717238
0.000766168
0.000808896
0.000844369
0.000872044
0.000891805
0.000903876
0.000908723
0.000906973
0.000899336
0.000886525
0.000869201
0.00084791
0.000823053
0.000794872
0.000763467
0.000728853
0.00069104
0.000650141
0.000606463
0.000560575
0.000513307
0.000465689
0.00041883
0.000373779
0.000331393
0.00029226
0.000256684
0.000224717
0.000196232
0.000171
0.000148756
0.000129241
0.00011221
9.7431e-05
8.46606e-05
7.36283e-05
6.40302e-05
5.5538e-05
4.7818e-05
4.05523e-05
3.3452e-05
2.62554e-05
1.8695e-05
1.03388e-05
2.93841e-07
3.71428e-08
5.09906e-06
1.82072e-05
3.48525e-05
5.31066e-05
7.20787e-05
9.11799e-05
0.00010995
0.000128012
0.000145074
0.00016093
0.000175474
0.000188703
0.000200711
0.000211672
0.000221818
0.000231549
0.000241487
0.000251999
0.000263308
0.000275458
0.000288349
0.00030187
0.000316133
0.000331711
0.000349767
0.00037193
0.000399914
0.000434959
0.000477342
0.00052615
0.000579422
0.000634551
0.00068878
0.000739617
0.000785074
0.000823756
0.00085484
0.000878002
0.000893315
0.00090115
0.000902078
0.000896788
0.000885997
0.000870389
0.000850547
0.000826916
0.000799782
0.000769282
0.000735456
0.00069832
0.000657971
0.000614688
0.000569003
0.000521716
0.000473845
0.00042651
0.000380798
0.000337621
0.000297635
0.000261204
0.000228433
0.00019923
0.000173388
0.000150648
0.000130748
0.000113434
9.8458e-05
8.55582e-05
7.44446e-05
6.47939e-05
5.62607e-05
4.84979e-05
4.11782e-05
3.40072e-05
2.67213e-05
1.90532e-05
1.05722e-05
3.06841e-07
3.76899e-08
5.11791e-06
1.8165e-05
3.47776e-05
5.31196e-05
7.23389e-05
9.18634e-05
0.000111233
0.000130056
0.000148005
0.000164827
0.000180356
0.000194526
0.000207375
0.000219037
0.000229722
0.0002397
0.000249536
0.000259731
0.000270607
0.000282316
0.000294819
0.00030796
0.000321633
0.000336041
0.000351926
0.000370644
0.00039395
0.000423517
0.000460345
0.000504316
0.000554085
0.000607351
0.000661341
0.000713319
0.000760946
0.000802465
0.000836739
0.000863194
0.000881721
0.000892569
0.000896236
0.000893371
0.000884687
0.000870881
0.000852569
0.000830236
0.000804211
0.000774671
0.00074168
0.000705264
0.00066551
0.00062267
0.00057724
0.000529989
0.000481918
0.000434155
0.00038782
0.000343881
0.000303056
0.000265774
0.000232196
0.000202269
0.000175808
0.000152565
0.000132275
0.000114675
9.9501e-05
8.64725e-05
7.52787e-05
6.55763e-05
5.70022e-05
4.91954e-05
4.18196e-05
3.45753e-05
2.71967e-05
1.94176e-05
1.08084e-05
3.20268e-07
3.86129e-08
5.16662e-06
1.81859e-05
3.4775e-05
5.31881e-05
7.26153e-05
9.25086e-05
0.000112418
0.000131947
0.000150746
0.000168522
0.000185056
0.000200216
0.000213973
0.000226406
0.000237692
0.000248078
0.00025789
0.000267823
0.000278285
0.000289532
0.000301623
0.000314432
0.000327754
0.000341519
0.000356067
0.000372353
0.000391935
0.000416651
0.000448046
0.000486772
0.000532239
0.000582656
0.000635431
0.00068771
0.000736857
0.000780757
0.000817928
0.000847512
0.000869184
0.00088304
0.00088948
0.000889103
0.0008826
0.000870676
0.00085397
0.000833006
0.000808152
0.000779624
0.000747515
0.000711863
0.000672748
0.000630397
0.000585273
0.000538112
0.000489895
0.000441755
0.000394838
0.000350165
0.000308518
0.000270393
0.000236006
0.000205348
0.000178261
0.000154508
0.000133823
0.000115934
0.000100562
8.7405e-05
7.6132e-05
6.63784e-05
5.7763e-05
4.99111e-05
4.24771e-05
3.51564e-05
2.76819e-05
1.97883e-05
1.10475e-05
3.34141e-07
4.02557e-08
5.27065e-06
1.83356e-05
3.49502e-05
5.34529e-05
7.30773e-05
9.3304e-05
0.000113701
0.000133879
0.000153479
0.000172182
0.000189722
0.000205907
0.000220636
0.000233918
0.000245871
0.000256714
0.00026674
0.000276452
0.000286495
0.000297231
0.000308834
0.00032126
0.000334292
0.000347701
0.0003615
0.000376217
0.000393056
0.000413767
0.000440194
0.000473634
0.000514284
0.000561027
0.000611649
0.000663347
0.000713283
0.000759011
0.000798699
0.000831172
0.000855856
0.000872665
0.000881879
0.000884023
0.000879755
0.000869775
0.00085474
0.000835205
0.000811578
0.000784111
0.000752927
0.000718079
0.000679642
0.000637824
0.000593054
0.000546035
0.000497726
0.000449259
0.000401805
0.000356433
0.000313988
0.000275031
0.000239839
0.000208449
0.000180732
0.000156465
0.000135382
0.000117204
0.000101633
8.83507e-05
7.70005e-05
6.71972e-05
5.85408e-05
5.06428e-05
4.31484e-05
3.57487e-05
2.81753e-05
2.01639e-05
1.12889e-05
3.48408e-07
4.28975e-08
5.45132e-06
1.86803e-05
3.54246e-05
5.40909e-05
7.39509e-05
9.45141e-05
0.000115372
0.00013615
0.000156495
0.000176076
0.000194599
0.000211821
0.000227576
0.000241794
0.00025452
0.000265917
0.000276249
0.000285874
0.000295522
0.000305691
0.000316694
0.000328607
0.000341276
0.000354409
0.000367792
0.000381579
0.000396549
0.000414172
0.000436341
0.000464792
0.000500438
0.000542916
0.000590566
0.000640815
0.000690757
0.000737683
0.000779417
0.000814457
0.000841948
0.000861597
0.000873535
0.000878193
0.000876183
0.000868187
0.000854871
0.000836814
0.000814458
0.000788093
0.000757869
0.000723857
0.000686133
0.000644885
0.000600513
0.000553686
0.000505339
0.000456598
0.000408656
0.000362625
0.000319411
0.000279643
0.000243657
0.000211539
0.000183194
0.000158413
0.000136935
0.00011847
0.000102706
8.93016e-05
7.78781e-05
6.80275e-05
5.93312e-05
5.13867e-05
4.38306e-05
3.63495e-05
2.86744e-05
2.05427e-05
1.15311e-05
3.62965e-07
4.67379e-08
5.71954e-06
1.92565e-05
3.62708e-05
5.52152e-05
7.53909e-05
9.63332e-05
0.000117658
0.00013901
0.000160051
0.000180455
0.000199913
0.000218152
0.000234953
0.000250178
0.000263788
0.00027587
0.000286634
0.000296399
0.000305692
0.00031526
0.000325547
0.000336779
0.000348914
0.000361687
0.000374762
0.000388002
0.000401777
0.000417168
0.000435901
0.000459916
0.000490686
0.00052859
0.000572636
0.000620655
0.000669822
0.000717261
0.0007605
0.000797703
0.000827725
0.000850033
0.000864589
0.000871712
0.000871945
0.000865942
0.000854368
0.000837818
0.000816765
0.00079153
0.000762294
0.000729144
0.000692158
0.000651511
0.000607574
0.000560984
0.00051265
0.00046369
0.000415312
0.000368669
0.000324724
0.000284172
0.000247412
0.00021458
0.000185615
0.000160328
0.000138461
0.000119717
0.000103768
9.02483e-05
7.87573e-05
6.88636e-05
6.01294e-05
5.21387e-05
4.45197e-05
3.69554e-05
2.91764e-05
2.09223e-05
1.17724e-05
3.77675e-07
5.19596e-08
6.07996e-06
2.00774e-05
3.75138e-05
5.68671e-05
7.74604e-05
9.88503e-05
0.000120675
0.000142602
0.000164311
0.000185489
0.00020583
0.000225046
0.000242886
0.000259153
0.000273736
0.000286635
0.00029798
0.000308035
0.000317189
0.000326234
0.000335756
0.000346151
0.000357541
0.000369758
0.000382447
0.000395285
0.000408298
0.000422149
0.000438253
0.000458526
0.000484803
0.000518107
0.000558154
0.000603306
0.000650977
0.000698241
0.000742394
0.000781296
0.000813498
0.000838219
0.000855228
0.000864711
0.00086713
0.000863095
0.000853257
0.000838222
0.000818484
0.000794393
0.000766158
0.000733883
0.000697653
0.000657628
0.000614156
0.000567842
0.000519568
0.000470443
0.000421684
0.000374481
0.000329852
0.000288553
0.000251047
0.000217523
0.000187956
0.000162178
0.000139936
0.000120926
0.000104803
9.11794e-05
7.96294e-05
6.96983e-05
6.09295e-05
5.28936e-05
4.52112e-05
3.75623e-05
2.96777e-05
2.12996e-05
1.20106e-05
3.92359e-07
5.8833e-08
6.53603e-06
2.11444e-05
3.91507e-05
5.90435e-05
8.01626e-05
0.000102083
0.000124462
0.000146989
0.000169364
0.000191289
0.000212471
0.000232622
0.000251472
0.00026879
0.000284406
0.000298239
0.00031033
0.00032086
0.000330146
0.000338828
0.000347635
0.000357111
0.000367562
0.00037898
0.000391079
0.00040346
0.000415899
0.000428682
0.00044284
0.000460097
0.000482432
0.000511359
0.000547262
0.000589108
0.000634674
0.000681115
0.00072558
0.000765665
0.000799638
0.000826457
0.000845688
0.00085737
0.000861865
0.000859727
0.000851584
0.00083804
0.000819606
0.000796654
0.000769416
0.000738017
0.000702543
0.00066315
0.000620161
0.000574153
0.000525982
0.000476742
0.000427661
0.000379956
0.000334696
0.000292699
0.000254488
0.000220305
0.000190165
0.000163921
0.000141326
0.000122071
0.000105792
9.20797e-05
8.04825e-05
7.05223e-05
6.17237e-05
5.36446e-05
4.58991e-05
3.81648e-05
3.01736e-05
2.16708e-05
1.22427e-05
4.06763e-07
6.76347e-08
7.08676e-06
2.24477e-05
4.11643e-05
6.17247e-05
8.34815e-05
0.000106025
0.00012903
0.000152204
0.000175267
0.000197939
0.00021994
0.000240991
0.000260819
0.000279173
0.000295844
0.00031069
0.000323671
0.000334878
0.000344555
0.000353112