/*--------------------------------*- C++ -*----------------------------------*\
  =========                 |
  \\      /  F ield         | OpenFOAM: The Open Source CFD Toolbox
   \\    /   O peration     | Website:  https://openfoam.org
    \\  /    A nd           | Version:  7
     \\/     M anipulation  |
\*---------------------------------------------------------------------------*/
FoamFile
{
    version     2.0;
    format      ascii;
    class       volScalarField;
    location    "20000";
    object      p;
}
// * * * * * * * * * * * * * * * * * * * * * * * * * * * * * * * * * * * * * //

dimensions      [0 2 -2 0 0 0 0];

internalField   nonuniform List<scalar> 
10981
(
2.99655e-17
1.31989e-07
5.57875e-07
1.41884e-06
2.68779e-06
4.35345e-06
6.41908e-06
8.88671e-06
1.17579e-05
1.50357e-05
1.87228e-05
2.28198e-05
2.73218e-05
3.22179e-05
3.74895e-05
4.31104e-05
4.90476e-05
5.52618e-05
6.17089e-05
6.83416e-05
7.51107e-05
8.1967e-05
8.88621e-05
9.57504e-05
0.000102589
0.000109339
0.000115967
0.000122442
0.000128739
0.000134837
0.000140718
0.000146369
0.000151779
0.000156941
0.000161848
0.000166499
0.000170892
0.000175027
0.000178907
0.000182536
0.000185919
0.000189062
0.000191974
0.000194663
0.000197139
0.000199414
0.000201497
0.000203399
0.000205133
0.000206708
0.000208134
0.000209421
0.000210577
0.000211612
0.000212533
0.000213349
0.000214069
0.000214701
0.000215253
0.000215736
0.000216155
0.000216519
0.000216835
0.000217109
0.000217344
0.000217547
0.00021772
0.000217866
0.000217988
0.000218089
0.000218169
0.000218231
0.000218277
0.000218309
0.00021833
0.000218342
0.000218347
0.000218346
0.000218346
4.90291e-06
4.89798e-06
5.11624e-06
5.76928e-06
6.85298e-06
8.35309e-06
1.02702e-05
1.26046e-05
1.53541e-05
1.85143e-05
2.2079e-05
2.60399e-05
3.03857e-05
3.51008e-05
4.0165e-05
4.55531e-05
5.12346e-05
5.71748e-05
6.33352e-05
6.96745e-05
7.61498e-05
8.27175e-05
8.93344e-05
9.5959e-05
0.000102552
0.000109077
0.000115501
0.000121794
0.000127932
0.000133893
0.000139657
0.00014521
0.000150541
0.000155639
0.000160497
0.000165112
0.000169479
0.000173598
0.00017747
0.000181096
0.000184482
0.000187631
0.000190552
0.000193252
0.000195739
0.000198025
0.00020012
0.000202034
0.000203777
0.000205361
0.000206795
0.000208088
0.00020925
0.000210289
0.000211215
0.000212034
0.000212757
0.000213391
0.000213946
0.000214429
0.00021485
0.000215215
0.000215531
0.000215804
0.000216039
0.000216241
0.000216413
0.000216557
0.000216677
0.000216775
0.000216853
0.000216912
0.000216956
0.000216986
0.000217005
0.000217015
0.000217018
0.000217016
0.000217015
6.79116e-06
6.8401e-06
7.19582e-06
8.0233e-06
9.29905e-06
1.09986e-05
1.31135e-05
1.56361e-05
1.85555e-05
2.18585e-05
2.55308e-05
2.95572e-05
3.39212e-05
3.86042e-05
4.35849e-05
4.88391e-05
5.43399e-05
6.00578e-05
6.59611e-05
7.20165e-05
7.81894e-05
8.44449e-05
9.07479e-05
9.70639e-05
0.00010336
0.000109604
0.000115768
0.000121823
0.000127746
0.000133516
0.000139113
0.000144522
0.000149728
0.000154722
0.000159495
0.000164039
0.000168349
0.000172424
0.000176262
0.000179863
0.000183231
0.000186368
0.000189281
0.000191977
0.000194463
0.000196749
0.000198845
0.00020076
0.000202506
0.000204091
0.000205526
0.000206821
0.000207983
0.000209023
0.000209948
0.000210767
0.00021149
0.000212124
0.000212678
0.000213161
0.000213581
0.000213945
0.00021426
0.000214532
0.000214765
0.000214965
0.000215134
0.000215276
0.000215394
0.000215489
0.000215564
0.000215621
0.000215663
0.000215691
0.000215708
0.000215716
0.000215717
0.000215715
0.000215712
-1.65763e-06
-9.81977e-07
4.25279e-07
2.38277e-06
4.80354e-06
7.65702e-06
1.09061e-05
1.45073e-05
1.84194e-05
2.26059e-05
2.70367e-05
3.16867e-05
3.65353e-05
4.15657e-05
4.67634e-05
5.21151e-05
5.76077e-05
6.32275e-05
6.89589e-05
7.47849e-05
8.06864e-05
8.66423e-05
9.26302e-05
9.86263e-05
0.000104606
0.000110546
0.000116421
0.000122209
0.000127887
0.000133436
0.000138837
0.000144074
0.000149133
0.000154
0.000158666
0.000163122
0.000167362
0.00017138
0.000175173
0.000178741
0.000182084
0.000185205
0.000188107
0.000190796
0.000193278
0.000195563
0.000197659
0.000199576
0.000201323
0.00020291
0.000204347
0.000205643
0.000206807
0.000207848
0.000208774
0.000209594
0.000210317
0.000210951
0.000211505
0.000211988
0.000212408
0.000212771
0.000213085
0.000213356
0.000213588
0.000213785
0.000213952
0.000214092
0.000214206
0.000214298
0.000214369
0.000214422
0.000214459
0.000214483
0.000214495
0.000214499
0.000214497
0.000214492
0.000214488
-1.53937e-06
-5.77401e-07
1.35221e-06
3.84093e-06
6.75316e-06
1.00709e-05
1.37576e-05
1.7763e-05
2.20386e-05
2.65406e-05
3.12306e-05
3.60765e-05
4.10522e-05
4.61377e-05
5.1318e-05
5.65819e-05
6.19211e-05
6.73286e-05
7.27978e-05
7.83214e-05
8.38906e-05
8.94949e-05
9.51216e-05
0.000100756
0.000106381
0.00011198
0.000117533
0.00012302
0.000128422
0.000133721
0.000138899
0.000143938
0.000148823
0.000153541
0.000158079
0.000162427
0.000166576
0.00017052
0.000174254
0.000177773
0.000181078
0.000184169
0.000187048
0.00018972
0.000192191
0.000194466
0.000196555
0.000198467
0.00020021
0.000201794
0.000203228
0.000204521
0.000205682
0.00020672
0.000207644
0.000208462
0.000209183
0.000209815
0.000210368
0.000210849
0.000211267
0.000211629
0.000211941
0.000212209
0.000212438
0.000212633
0.000212797
0.000212933
0.000213044
0.000213132
0.0002132
0.00021325
0.000213285
0.000213306
0.000213316
0.000213319
0.000213315
0.000213309
0.000213304
3.62697e-06
4.64683e-06
6.82125e-06
9.6059e-06
1.27707e-05
1.62895e-05
2.01265e-05
2.4231e-05
2.85556e-05
3.30583e-05
3.77016e-05
4.24536e-05
4.72886e-05
5.21875e-05
5.71369e-05
6.21286e-05
6.71579e-05
7.22231e-05
7.73231e-05
8.24573e-05
8.7624e-05
9.28196e-05
9.80382e-05
0.000103272
0.000108509
0.000113738
0.000118942
0.000124105
0.00012921
0.000134239
0.000139174
0.000143999
0.000148695
0.000153249
0.000157646
0.000161874
0.000165923
0.000169783
0.000173448
0.000176912
0.000180172
0.000183228
0.00018608
0.00018873
0.000191184
0.000193447
0.000195527
0.000197431
0.000199168
0.000200746
0.000202176
0.000203465
0.000204623
0.000205658
0.000206578
0.000207394
0.000208112
0.000208742
0.000209293
0.000209772
0.000210188
0.000210547
0.000210857
0.000211123
0.00021135
0.000211543
0.000211704
0.000211838
0.000211946
0.000212031
0.000212096
0.000212143
0.000212175
0.000212194
0.000212202
0.000212202
0.000212196
0.000212188
0.000212182
1.6546e-05
1.71986e-05
1.90687e-05
2.16358e-05
2.45456e-05
2.77517e-05
3.12246e-05
3.49175e-05
3.87914e-05
4.28162e-05
4.69649e-05
5.12133e-05
5.55406e-05
5.993e-05
6.43693e-05
6.88509e-05
7.3371e-05
7.79286e-05
8.25247e-05
8.71606e-05
9.18373e-05
9.65545e-05
0.00010131
0.000106098
0.000110912
0.000115741
0.000120572
0.000125391
0.000130181
0.000134925
0.000139604
0.0001442
0.000148697
0.000153077
0.000157325
0.000161425
0.000165366
0.000169137
0.000172728
0.000176133
0.000179345
0.000182363
0.000185185
0.000187813
0.000190249
0.000192499
0.000194568
0.000196464
0.000198195
0.000199768
0.000201193
0.000202478
0.000203632
0.000204664
0.000205582
0.000206395
0.000207111
0.000207739
0.000208288
0.000208765
0.000209179
0.000209537
0.000209845
0.000210109
0.000210334
0.000210525
0.000210684
0.000210814
0.00021092
0.000211002
0.000211064
0.000211109
0.000211137
0.000211153
0.000211158
0.000211156
0.000211148
0.000211138
0.000211131
3.7483e-05
3.74165e-05
3.84362e-05
4.02273e-05
4.2334e-05
4.46889e-05
4.72779e-05
5.0056e-05
5.29857e-05
5.60482e-05
5.92344e-05
6.2538e-05
6.59524e-05
6.94703e-05
7.30836e-05
7.67852e-05
8.05691e-05
8.44317e-05
8.83708e-05
9.23854e-05
9.64745e-05
0.000100637
0.000104869
0.000109166
0.00011352
0.000117922
0.000122358
0.000126816
0.000131276
0.000135723
0.000140137
0.000144498
0.000148788
0.000152989
0.000157082
0.000161051
0.000164882
0.00016856
0.000172076
0.000175419
0.000178583
0.000181562
0.000184354
0.000186959
0.000189379
0.000191615
0.000193675
0.000195563
0.000197287
0.000198856
0.000200277
0.000201558
0.00020271
0.000203738
0.000204654
0.000205464
0.000206178
0.000206805
0.000207352
0.000207827
0.00020824
0.000208596
0.000208903
0.000209165
0.000209388
0.000209576
0.000209733
0.000209862
0.000209965
0.000210045
0.000210104
0.000210145
0.000210171
0.000210185
0.000210188
0.000210183
0.000210174
0.000210162
0.000210154
6.25644e-05
6.1854e-05
6.19414e-05
6.27515e-05
6.38268e-05
6.50954e-05
6.65718e-05
6.82251e-05
7.00145e-05
7.19164e-05
7.39246e-05
7.60462e-05
7.82948e-05
8.06846e-05
8.32251e-05
8.59198e-05
8.87673e-05
9.17627e-05
9.49002e-05
9.81738e-05
0.000101578
0.000105105
0.000108751
0.000112506
0.000116361
0.000120304
0.000124322
0.000128397
0.000132513
0.00013665
0.000140788
0.000144905
0.000148982
0.000152997
0.00015693
0.000160763
0.000164479
0.000168063
0.0001715
0.00017478
0.000177893
0.000180832
0.000183594
0.000186175
0.000188576
0.0001908
0.000192849
0.000194729
0.000196447
0.000198011
0.000199427
0.000200705
0.000201853
0.000202879
0.000203791
0.000204599
0.000205311
0.000205935
0.000206481
0.000206955
0.000207366
0.00020772
0.000208025
0.000208286
0.000208508
0.000208694
0.000208849
0.000208976
0.000209076
0.000209154
0.000209212
0.000209251
0.000209275
0.000209287
0.000209288
0.000209283
0.000209271
0.000209258
0.000209249
8.60391e-05
8.51075e-05
8.47039e-05
8.48801e-05
8.52591e-05
8.57621e-05
8.64119e-05
8.71971e-05
8.80855e-05
8.90479e-05
9.00668e-05
9.11407e-05
9.22863e-05
9.35347e-05
9.49235e-05
9.64868e-05
9.82492e-05
0.000100224
0.000102413
0.000104813
0.000107415
0.00011021
0.000113185
0.000116328
0.000119625
0.00012306
0.000126617
0.000130276
0.000134018
0.00013782
0.00014166
0.000145514
0.000149361
0.000153175
0.000156936
0.000160622
0.000164214
0.000167693
0.000171044
0.000174254
0.00017731
0.000180204
0.00018293
0.000185483
0.000187863
0.000190069
0.000192106
0.000193976
0.000195686
0.000197242
0.000198653
0.000199926
0.000201069
0.00020209
0.000202999
0.000203804
0.000204513
0.000205134
0.000205677
0.000206149
0.000206558
0.000206911
0.000207214
0.000207474
0.000207693
0.000207878
0.000208032
0.000208157
0.000208256
0.000208332
0.000208388
0.000208427
0.000208449
0.00020846
0.00020846
0.000208453
0.000208441
0.000208426
0.000208417
0.000104009
0.000103142
0.000102616
0.000102533
0.000102627
0.000102822
0.000103131
0.000103545
0.000104036
0.00010457
0.000105116
0.00010565
0.000106164
0.000106673
0.000107216
0.000107846
0.000108624
0.0001096
0.000110812
0.000112279
0.000114008
0.000115994
0.000118227
0.000120692
0.000123372
0.000126248
0.000129299
0.000132503
0.000135836
0.000139274
0.000142791
0.00014636
0.000149956
0.000153553
0.000157126
0.000160651
0.000164106
0.00016747
0.000170726
0.000173857
0.000176849
0.000179692
0.000182377
0.000184898
0.000187253
0.00018944
0.000191461
0.000193319
0.000195019
0.000196567
0.000197971
0.000199238
0.000200375
0.000201392
0.000202297
0.000203098
0.000203803
0.000204422
0.000204963
0.000205433
0.00020584
0.000206191
0.000206492
0.00020675
0.000206968
0.000207151
0.000207303
0.000207426
0.000207524
0.000207599
0.000207654
0.00020769
0.000207712
0.00020772
0.000207719
0.000207711
0.000207697
0.00020768
0.000207669
0.000117299
0.000116561
0.000116036
0.000115832
0.000115782
0.00011583
0.000115989
0.000116261
0.000116625
0.00011705
0.000117494
0.000117914
0.000118272
0.000118548
0.000118743
0.00011889
0.000119047
0.000119289
0.000119692
0.000120317
0.000121206
0.00012238
0.000123846
0.000125597
0.00012762
0.000129896
0.000132402
0.000135114
0.000138005
0.000141048
0.000144214
0.000147473
0.000150797
0.000154156
0.000157523
0.000160872
0.000164176
0.000167414
0.000170563
0.000173606
0.000176527
0.000179311
0.000181949
0.000184433
0.000186758
0.000188922
0.000190925
0.000192768
0.000194457
0.000195996
0.000197391
0.000198651
0.000199782
0.000200793
0.000201693
0.00020249
0.000203192
0.000203808
0.000204345
0.000204813
0.000205218
0.000205567
0.000205866
0.000206122
0.000206339
0.00020652
0.00020667
0.000206792
0.000206888
0.000206961
0.000207014
0.000207048
0.000207067
0.000207074
0.000207071
0.000207061
0.000207045
0.000207027
0.000207015
0.000127361
0.000126749
0.00012627
0.000126014
0.000125873
0.000125814
0.000125855
0.000126013
0.000126288
0.000126663
0.000127108
0.000127575
0.000128012
0.000128365
0.000128595
0.000128687
0.00012866
0.000128568
0.000128489
0.000128515
0.000128726
0.000129186
0.000129934
0.000130988
0.000132348
0.000134006
0.000135943
0.000138136
0.000140557
0.000143177
0.000145965
0.000148889
0.000151917
0.000155018
0.00015816
0.000161314
0.000164452
0.000167548
0.000170579
0.000173522
0.00017636
0.000179077
0.000181661
0.000184101
0.000186391
0.000188527
0.000190507
0.000192332
0.000194006
0.000195533
0.000196918
0.000198168
0.000199292
0.000200296
0.00020119
0.000201981
0.000202679
0.000203291
0.000203825
0.000204289
0.000204691
0.000205038
0.000205335
0.000205589
0.000205803
0.000205983
0.000206131
0.000206251
0.000206345
0.000206416
0.000206467
0.000206499
0.000206516
0.000206521
0.000206516
0.000206504
0.000206486
0.000206467
0.000206454
0.000135123
0.000134621
0.0001342
0.000133934
0.000133748
0.000133618
0.000133563
0.000133607
0.000133766
0.000134048
0.000134445
0.00013493
0.000135457
0.000135967
0.000136393
0.000136679
0.000136793
0.000136736
0.00013655
0.000136313
0.000136122
0.000136072
0.000136243
0.000136687
0.000137436
0.000138499
0.000139872
0.000141538
0.000143475
0.000145654
0.000148045
0.000150613
0.000153326
0.000156149
0.000159047
0.00016199
0.000164946
0.000167886
0.000170784
0.000173616
0.000176361
0.000179001
0.000181522
0.00018391
0.000186158
0.00018826
0.000190213
0.000192016
0.000193672
0.000195183
0.000196555
0.000197794
0.000198908
0.000199904
0.00020079
0.000201575
0.000202267
0.000202873
0.000203403
0.000203864
0.000204263
0.000204606
0.000204901
0.000205152
0.000205364
0.000205542
0.000205688
0.000205806
0.000205898
0.000205967
0.000206015
0.000206045
0.000206061
0.000206064
0.000206057
0.000206043
0.000206023
0.000206002
0.000205988
0.000141313
0.000140896
0.000140531
0.000140274
0.000140071
0.000139904
0.000139787
0.000139741
0.000139787
0.000139947
0.000140233
0.000140646
0.000141166
0.000141754
0.000142345
0.000142868
0.00014325
0.000143441
0.000143429
0.000143242
0.000142953
0.00014266
0.000142466
0.000142459
0.000142706
0.000143246
0.000144096
0.000145258
0.000146717
0.000148453
0.000150438
0.000152638
0.000155021
0.00015755
0.00016019
0.000162906
0.000165664
0.000168435
0.000171187
0.000173896
0.000176537
0.00017909
0.000181538
0.000183867
0.000186067
0.000188129
0.000190049
0.000191825
0.000193458
0.000194951
0.000196307
0.000197533
0.000198635
0.00019962
0.000200497
0.000201274
0.000201958
0.000202558
0.000203083
0.000203539
0.000203934
0.000204274
0.000204565
0.000204814
0.000205024
0.000205199
0.000205342
0.000205458
0.000205548
0.000205615
0.000205661
0.000205689
0.000205703
0.000205704
0.000205695
0.000205679
0.000205658
0.000205636
0.000205621
0.000146381
0.000146031
0.000145712
0.000145471
0.000145266
0.000145083
0.000144931
0.000144829
0.000144793
0.000144847
0.000145011
0.000145303
0.000145731
0.000146283
0.000146923
0.000147591
0.000148209
0.000148694
0.000148982
0.000149047
0.000148907
0.000148628
0.000148307
0.00014805
0.000147952
0.000148083
0.000148492
0.000149202
0.000150216
0.000151525
0.000153109
0.000154941
0.000156987
0.000159213
0.000161582
0.00016406
0.000166609
0.000169197
0.000171792
0.000174366
0.000176893
0.000179349
0.000181716
0.000183978
0.000186121
0.000188137
0.000190019
0.000191763
0.00019337
0.00019484
0.000196177
0.000197386
0.000198474
0.000199446
0.000200312
0.000201079
0.000201755
0.000202348
0.000202866
0.000203316
0.000203706
0.000204042
0.00020433
0.000204575
0.000204782
0.000204955
0.000205096
0.000205209
0.000205297
0.000205362
0.000205406
0.000205432
0.000205444
0.000205443
0.000205433
0.000205415
0.000205393
0.00020537
0.000205354
0.000150645
0.000150348
0.000150069
0.000149846
0.000149646
0.000149459
0.000149292
0.000149156
0.000149067
0.000149043
0.000149106
0.000149279
0.000149582
0.000150026
0.000150606
0.000151292
0.000152026
0.000152726
0.000153304
0.000153686
0.000153833
0.000153756
0.000153519
0.000153216
0.000152952
0.000152824
0.000152906
0.000153247
0.000153875
0.000154797
0.000156005
0.00015748
0.000159194
0.000161117
0.000163212
0.000165443
0.000167774
0.000170171
0.000172599
0.000175028
0.000177431
0.000179782
0.000182059
0.000184245
0.000186325
0.000188288
0.000190126
0.000191834
0.000193409
0.000194853
0.000196168
0.000197357
0.000198428
0.000199386
0.000200238
0.000200994
0.000201659
0.000202244
0.000202754
0.000203198
0.000203582
0.000203913
0.000204197
0.000204438
0.000204642
0.000204812
0.00020495
0.000205061
0.000205147
0.000205209
0.000205251
0.000205276
0.000205286
0.000205283
0.000205271
0.000205253
0.000205229
0.000205205
0.000205189
0.000154281
0.000154031
0.000153791
0.000153591
0.000153408
0.000153231
0.000153066
0.000152921
0.000152807
0.00015274
0.000152738
0.000152824
0.00015302
0.000153348
0.000153821
0.000154439
0.000155173
0.000155969
0.000156744
0.000157403
0.000157862
0.000158078
0.000158059
0.000157866
0.000157594
0.000157349
0.000157226
0.000157299
0.000157616
0.000158207
0.000159077
0.000160221
0.000161619
0.000163245
0.000165067
0.00016705
0.000169159
0.000171357
0.00017361
0.000175887
0.000178156
0.000180393
0.000182572
0.000184675
0.000186684
0.000188588
0.000190375
0.00019204
0.00019358
0.000194993
0.000196281
0.000197448
0.000198499
0.00019944
0.000200277
0.000201019
0.000201673
0.000202246
0.000202748
0.000203184
0.000203562
0.000203887
0.000204166
0.000204403
0.000204603
0.000204769
0.000204905
0.000205013
0.000205097
0.000205157
0.000205197
0.00020522
0.000205228
0.000205224
0.000205211
0.000205191
0.000205167
0.000205142
0.000205126
0.000157438
0.000157225
0.000157018
0.000156842
0.000156677
0.000156515
0.000156359
0.000156215
0.000156091
0.000156
0.000155955
0.000155976
0.000156085
0.000156305
0.000156657
0.000157158
0.000157805
0.000158578
0.000159421
0.000160253
0.000160975
0.0001615
0.000161779
0.00016182
0.000161683
0.000161464
0.000161267
0.000161183
0.000161285
0.000161618
0.000162209
0.000163065
0.000164178
0.000165529
0.000167092
0.000168835
0.000170724
0.000172724
0.0001748
0.00017692
0.000179052
0.000181169
0.000183245
0.000185259
0.000187192
0.000189031
0.000190763
0.000192382
0.000193881
0.00019526
0.00019652
0.000197661
0.00019869
0.000199611
0.000200431
0.000201158
0.000201799
0.000202361
0.000202852
0.00020328
0.00020365
0.000203969
0.000204242
0.000204475
0.000204671
0.000204834
0.000204966
0.000205072
0.000205153
0.000205211
0.000205249
0.00020527
0.000205276
0.00020527
0.000205256
0.000205235
0.00020521
0.000205184
0.000205168
0.000160278
0.000160093
0.000159912
0.000159756
0.000159608
0.000159461
0.000159317
0.00015918
0.000159057
0.000158954
0.000158885
0.000158863
0.000158908
0.000159042
0.000159287
0.000159664
0.000160188
0.000160859
0.000161656
0.000162527
0.000163391
0.00016415
0.000164718
0.000165045
0.00016514
0.000165065
0.000164914
0.000164787
0.00016477
0.000164931
0.00016531
0.000165932
0.000166802
0.000167909
0.000169235
0.000170754
0.000172434
0.000174242
0.000176145
0.000178109
0.000180103
0.000182097
0.000184067
0.000185988
0.000187842
0.000189612
0.000191286
0.000192854
0.000194311
0.000195653
0.00019688
0.000197994
0.000198999
0.000199899
0.0002007
0.000201411
0.000202037
0.000202586
0.000203067
0.000203484
0.000203847
0.000204159
0.000204426
0.000204654
0.000204845
0.000205004
0.000205134
0.000205236
0.000205314
0.00020537
0.000205406
0.000205425
0.00020543
0.000205422
0.000205407
0.000205385
0.000205358
0.000205332
0.000205317
0.000162839
0.000162678
0.000162521
0.000162385
0.000162255
0.000162125
0.000161996
0.000161871
0.000161754
0.000161653
0.000161574
0.00016153
0.000161536
0.000161611
0.000161776
0.000162053
0.000162462
0.000163015
0.000163713
0.000164533
0.000165422
0.000166303
0.000167078
0.000167665
0.00016802
0.000168157
0.000168141
0.000168063
0.000168018
0.000168085
0.000168323
0.000168769
0.000169441
0.000170342
0.00017146
0.000172776
0.000174262
0.000175889
0.000177625
0.000179437
0.000181294
0.000183167
0.000185029
0.000186856
0.000188628
0.000190326
0.000191938
0.000193453
0.000194864
0.000196167
0.00019736
0.000198445
0.000199423
0.0002003
0.000201081
0.000201774
0.000202384
0.00020292
0.000203388
0.000203796
0.000204149
0.000204454
0.000204715
0.000204937
0.000205124
0.000205279
0.000205405
0.000205504
0.00020558
0.000205633
0.000205667
0.000205684
0.000205687
0.000205678
0.000205661
0.000205638
0.000205612
0.000205586
0.00020557
0.000165169
0.00016503
0.000164895
0.000164779
0.000164669
0.000164557
0.000164445
0.000164335
0.00016423
0.000164135
0.000164056
0.000164002
0.000163986
0.000164022
0.00016413
0.00016433
0.000164644
0.000165088
0.000165675
0.000166402
0.000167244
0.000168147
0.000169033
0.00016981
0.000170401
0.00017077
0.000170942
0.000170983
0.000170984
0.00017103
0.000171192
0.000171521
0.000172046
0.000172781
0.000173725
0.000174863
0.000176176
0.000177637
0.000179217
0.000180885
0.00018261
0.000184364
0.000186119
0.000187852
0.00018954
0.000191165
0.000192714
0.000194174
0.000195537
0.000196799
0.000197956
0.000199009
0.00019996
0.000200813
0.000201573
0.000202246
0.00020284
0.000203361
0.000203817
0.000204213
0.000204557
0.000204853
0.000205107
0.000205323
0.000205505
0.000205656
0.000205779
0.000205875
0.000205948
0.000205999
0.000206031
0.000206046
0.000206048
0.000206038
0.00020602
0.000205996
0.000205969
0.000205943
0.000205928
0.000167304
0.000167184
0.00016707
0.000166975
0.000166885
0.000166793
0.0001667
0.000166607
0.000166515
0.00016643
0.000166356
0.0001663
0.000166272
0.000166285
0.000166354
0.000166497
0.000166734
0.000167085
0.000167567
0.000168188
0.000168943
0.000169803
0.000170714
0.000171597
0.000172365
0.00017295
0.00017333
0.000173537
0.000173641
0.000173729
0.000173876
0.000174143
0.000174571
0.000175184
0.000175988
0.00017698
0.000178143
0.000179457
0.000180895
0.000182429
0.00018403
0.00018567
0.000187323
0.000188962
0.000190568
0.000192121
0.000193606
0.00019501
0.000196325
0.000197544
0.000198664
0.000199684
0.000200607
0.000201434
0.000202172
0.000202826
0.000203403
0.000203908
0.000204351
0.000204735
0.000205069
0.000205357
0.000205604
0.000205814
0.000205991
0.000206137
0.000206256
0.00020635
0.00020642
0.000206469
0.000206499
0.000206512
0.000206513
0.000206502
0.000206483
0.000206459
0.000206431
0.000206406
0.000206391
0.000169284
0.000169179
0.000169084
0.000169008
0.000168938
0.000168866
0.000168791
0.000168714
0.000168637
0.000168563
0.000168496
0.000168442
0.000168409
0.000168407
0.00016845
0.000168552
0.000168731
0.000169007
0.000169398
0.000169918
0.000170573
0.000171354
0.00017223
0.000173144
0.000174018
0.000174772
0.000175349
0.00017574
0.000175989
0.000176166
0.000176349
0.000176605
0.000176984
0.000177517
0.00017822
0.000179096
0.000180136
0.000181323
0.000182637
0.00018405
0.000185538
0.000187072
0.000188626
0.000190177
0.000191703
0.000193185
0.000194606
0.000195955
0.000197221
0.000198397
0.000199479
0.000200467
0.00020136
0.000202162
0.000202877
0.000203511
0.00020407
0.00020456
0.000204988
0.000205361
0.000205684
0.000205964
0.000206203
0.000206407
0.000206579
0.000206721
0.000206836
0.000206927
0.000206994
0.000207041
0.000207069
0.000207081
0.00020708
0.000207069
0.000207049
0.000207025
0.000206997
0.000206972
0.000206958
0.00017116
0.000171065
0.000170981
0.000170919
0.000170863
0.000170805
0.000170743
0.00017068
0.000170614
0.000170549
0.000170487
0.000170435
0.000170398
0.000170386
0.00017041
0.000170481
0.000170617
0.000170835
0.00017115
0.000171582
0.000172141
0.000172831
0.000173638
0.000174528
0.000175442
0.000176305
0.000177046
0.00017762
0.000178034
0.000178338
0.0001786
0.00017889
0.000179263
0.000179756
0.000180394
0.000181186
0.00018213
0.000183214
0.000184421
0.00018573
0.000187115
0.000188552
0.000190016
0.000191484
0.000192934
0.000194347
0.000195707
0.000197001
0.000198219
0.000199352
0.000200397
0.000201352
0.000202216
0.000202992
0.000203684
0.000204298
0.000204839
0.000205313
0.000205727
0.000206088
0.000206401
0.000206672
0.000206904
0.000207101
0.000207268
0.000207406
0.000207518
0.000207605
0.00020767
0.000207715
0.000207741
0.000207752
0.00020775
0.000207738
0.000207718
0.000207693
0.000207665
0.00020764
0.000207627
0.000173005
0.000172914
0.000172834
0.000172776
0.000172723
0.000172669
0.000172611
0.00017255
0.000172486
0.000172421
0.000172357
0.000172299
0.000172253
0.000172227
0.00017223
0.000172275
0.000172374
0.000172542
0.000172796
0.000173152
0.000173624
0.000174222
0.000174946
0.000175778
0.000176682
0.000177598
0.000178454
0.000179189
0.000179776
0.000180232
0.00018061
0.000180975
0.000181383
0.000181877
0.000182486
0.000183226
0.000184102
0.000185107
0.000186229
0.000187449
0.000188746
0.000190097
0.00019148
0.000192871
0.00019425
0.000195598
0.0001969
0.000198141
0.000199312
0.000200404
0.000201413
0.000202335
0.00020317
0.000203921
0.000204591
0.000205184
0.000205707
0.000206165
0.000206566
0.000206915
0.000207218
0.000207479
0.000207704
0.000207896
0.000208057
0.000208191
0.000208299
0.000208384
0.000208447
0.000208489
0.000208515
0.000208524
0.000208521
0.000208508
0.000208488
0.000208463
0.000208436
0.000208411
0.000208399
0.000174812
0.000174724
0.000174644
0.000174584
0.000174529
0.000174472
0.000174411
0.000174346
0.000174277
0.000174205
0.000174133
0.000174065
0.000174006
0.000173963
0.000173946
0.000173964
0.000174031
0.00017416
0.000174365
0.000174661
0.000175065
0.000175588
0.000176236
0.000177004
0.000177873
0.000178799
0.000179723
0.000180579
0.000181318
0.000181928
0.000182439
0.000182903
0.000183376
0.000183901
0.000184512
0.000185229
0.000186062
0.000187009
0.000188064
0.000189211
0.000190433
0.000191709
0.000193017
0.000194338
0.000195651
0.000196938
0.000198184
0.000199375
0.0002005
0.000201551
0.000202523
0.000203413
0.00020422
0.000204945
0.000205592
0.000206165
0.00020667
0.000207113
0.0002075
0.000207836
0.000208129
0.000208381
0.000208599
0.000208784
0.00020894
0.00020907
0.000209175
0.000209257
0.000209318
0.000209359
0.000209383
0.000209392
0.000209388
0.000209375
0.000209355
0.00020933
0.000209303
0.000209279
0.000209268
0.000176601
0.000176514
0.000176431
0.000176364
0.0001763
0.000176233
0.000176161
0.000176084
0.000176002
0.000175917
0.000175829
0.000175743
0.000175664
0.000175598
0.000175554
0.000175543
0.000175577
0.000175667
0.00017583
0.000176078
0.000176426
0.000176887
0.000177471
0.00017818
0.000179006
0.000179921
0.00018088
0.000181823
0.000182691
0.000183449
0.000184101
0.000184683
0.000185244
0.000185827
0.000186467
0.000187187
0.000188001
0.000188913
0.000189919
0.00019101
0.000192169
0.00019338
0.000194624
0.000195881
0.000197133
0.000198363
0.000199556
0.000200698
0.000201779
0.000202791
0.000203727
0.000204585
0.000205364
0.000206064
0.000206688
0.000207241
0.000207728
0.000208155
0.000208527
0.000208852
0.000209134
0.000209377
0.000209587
0.000209767
0.000209918
0.000210044
0.000210146
0.000210225
0.000210284
0.000210324
0.000210347
0.000210355
0.000210351
0.000210338
0.000210317
0.000210293
0.000210267
0.000210244
0.000210234
0.000178398
0.000178309
0.000178219
0.000178139
0.00017806
0.000177976
0.000177885
0.00017779
0.000177688
0.000177581
0.000177471
0.000177361
0.000177256
0.000177161
0.000177086
0.00017704
0.000177036
0.000177086
0.000177206
0.000177408
0.000177707
0.000178116
0.000178645
0.000179301
0.000180083
0.000180976
0.000181947
0.000182948
0.00018392
0.000184814
0.00018561
0.000186323
0.000186992
0.000187656
0.00018835
0.000189097
0.000189916
0.000190813
0.000191789
0.000192838
0.000193949
0.000195106
0.000196294
0.000197495
0.000198692
0.00019987
0.000201013
0.000202109
0.000203147
0.000204121
0.000205022
0.000205849
0.000206599
0.000207274
0.000207876
0.000208409
0.000208879
0.00020929
0.000209648
0.000209961
0.000210232
0.000210467
0.000210669
0.000210843
0.000210989
0.000211111
0.00021121
0.000211287
0.000211344
0.000211383
0.000211405
0.000211413
0.000211408
0.000211395
0.000211375
0.000211351
0.000211326
0.000211304
0.000211295
0.000180228
0.000180135
0.000180034
0.000179937
0.000179836
0.000179728
0.000179612
0.000179489
0.00017936
0.000179225
0.000179085
0.000178944
0.000178806
0.000178676
0.000178564
0.000178478
0.000178432
0.000178438
0.000178511
0.000178667
0.00017892
0.000179283
0.000179766
0.000180377
0.00018112
0.000181986
0.000182957
0.000183993
0.000185045
0.000186056
0.000186991
0.000187843
0.000188635
0.000189399
0.000190167
0.000190965
0.000191809
0.000192711
0.000193674
0.000194697
0.000195772
0.000196887
0.000198027
0.00019918
0.000200327
0.000201457
0.000202553
0.000203606
0.000204604
0.00020554
0.000206408
0.000207204
0.000207927
0.000208577
0.000209156
0.000209669
0.000210121
0.000210516
0.000210861
0.000211161
0.000211422
0.000211648
0.000211843
0.00021201
0.000212152
0.00021227
0.000212366
0.000212441
0.000212496
0.000212533
0.000212554
0.000212561
0.000212557
0.000212543
0.000212524
0.000212501
0.000212476
0.000212455
0.000212448
0.000182077
0.000181983
0.000181871
0.000181754
0.00018163
0.000181495
0.000181351
0.000181198
0.000181037
0.000180868
0.000180694
0.000180518
0.000180343
0.000180175
0.000180023
0.000179894
0.000179803
0.000179762
0.000179788
0.000179897
0.000180104
0.000180424
0.000180868
0.000181445
0.000182157
0.000183003
0.00018397
0.00018503
0.00018614
0.000187248
0.000188308
0.000189296
0.000190216
0.000191091
0.000191949
0.000192812
0.000193699
0.000194621
0.000195587
0.000196596
0.000197646
0.000198728
0.000199829
0.000200939
0.000202042
0.000203127
0.00020418
0.000205191
0.00020615
0.000207049
0.000207884
0.000208649
0.000209344
0.000209969
0.000210526
0.000211019
0.000211452
0.000211831
0.000212162
0.000212449
0.000212699
0.000212916
0.000213104
0.000213265
0.000213401
0.000213515
0.000213608
0.000213681
0.000213734
0.00021377
0.000213791
0.000213797
0.000213793
0.000213779
0.00021376
0.000213738
0.000213714
0.000213694
0.000213688
0.000183916
0.000183825
0.000183706
0.000183574
0.000183429
0.000183272
0.000183101
0.000182919
0.000182727
0.000182526
0.000182317
0.000182105
0.000181892
0.000181685
0.000181491