/*--------------------------------*- C++ -*----------------------------------*\
  =========                 |
  \\      /  F ield         | OpenFOAM: The Open Source CFD Toolbox
   \\    /   O peration     | Website:  https://openfoam.org
    \\  /    A nd           | Version:  7
     \\/     M anipulation  |
\*---------------------------------------------------------------------------*/
FoamFile
{
    version     2.0;
    format      ascii;
    class       surfaceScalarField;
    location    "20000";
    object      phi;
}
// * * * * * * * * * * * * * * * * * * * * * * * * * * * * * * * * * * * * * //

dimensions      [0 3 -1 0 0 0 0];

internalField   nonuniform List<scalar> 
21744
(
-6.75771e-08
3.89728e-06
9.51521e-09
8.25204e-06
2.46552e-07
1.12998e-05
6.08387e-07
1.40573e-05
1.04124e-06
1.67002e-05
1.49945e-06
1.92808e-05
1.95461e-06
2.18357e-05
2.3933e-06
2.44023e-05
2.81141e-06
2.70159e-05
3.20939e-06
2.9707e-05
3.58919e-06
3.25005e-05
3.95282e-06
3.54157e-05
4.30156e-06
3.84671e-05
4.63578e-06
4.16653e-05
4.95489e-06
4.50173e-05
5.25744e-06
4.85272e-05
5.54131e-06
5.21959e-05
5.80388e-06
5.60219e-05
6.04232e-06
6.00005e-05
6.25372e-06
6.41244e-05
6.43539e-06
6.83834e-05
6.58499e-06
7.27644e-05
6.70071e-06
7.7251e-05
6.78136e-06
8.18237e-05
6.82652e-06
8.646e-05
6.83648e-06
9.11339e-05
6.81231e-06
9.5816e-05
6.75579e-06
0.000100474
6.66932e-06
0.000105071
6.55582e-06
0.000109568
6.41858e-06
0.000113924
6.26113e-06
0.000118092
6.08707e-06
0.000122026
5.89991e-06
0.000125678
5.70293e-06
0.000128996
5.49908e-06
0.000131933
5.29088e-06
0.00013444
5.08039e-06
0.000136474
4.86922e-06
0.000137994
4.65856e-06
0.000138968
4.44928e-06
0.000139373
4.24195e-06
0.000139193
4.03701e-06
0.000138424
3.83476e-06
0.000137074
3.63548e-06
0.000135159
3.43939e-06
0.000132708
3.24675e-06
0.000129755
3.05778e-06
0.000126343
2.87267e-06
0.000122521
2.6916e-06
0.000118339
2.51465e-06
0.000113851
2.34189e-06
0.000109109
2.1733e-06
0.000104168
2.00882e-06
9.9078e-05
1.84839e-06
9.38907e-05
1.69198e-06
8.86538e-05
1.53962e-06
8.34135e-05
1.39145e-06
7.82126e-05
1.24773e-06
7.30906e-05
1.10886e-06
6.80824e-05
9.75368e-07
6.32178e-05
8.47882e-07
5.85203e-05
7.27108e-07
5.40074e-05
6.13792e-07
4.96905e-05
5.08695e-07
4.55753e-05
4.12562e-07
4.16625e-05
3.26078e-07
3.79485e-05
2.49832e-07
3.44268e-05
1.84253e-07
3.10884e-05
1.29538e-07
2.79225e-05
8.55857e-08
2.49174e-05
5.19278e-08
2.20605e-05
2.77132e-08
1.93376e-05
1.17385e-08
1.67311e-05
2.53082e-09
1.42162e-05
-1.5448e-09
1.17514e-05
-2.19467e-09
9.25469e-06
-1.12025e-09
6.51066e-06
2.74766e-06
-1.60868e-07
4.05814e-06
-2.80175e-07
8.37135e-06
-2.87681e-07
1.13073e-05
-1.779e-07
1.39475e-05
2.48876e-08
1.64974e-05
2.89115e-07
1.90165e-05
5.88466e-07
2.15364e-05
9.05679e-07
2.40851e-05
1.23133e-06
2.66902e-05
1.56107e-06
2.93772e-05
1.89324e-06
3.21683e-05
2.22717e-06
3.50817e-05
2.56229e-06
3.8132e-05
2.89755e-06
4.133e-05
3.23122e-06
4.46836e-05
3.56076e-06
4.81976e-05
3.88295e-06
5.18737e-05
4.19402e-06
5.57108e-05
4.48982e-06
5.97047e-05
4.76607e-06
6.38481e-05
5.01862e-06
6.81309e-05
5.24363e-06
7.25394e-05
5.43781e-06
7.70568e-05
5.59856e-06
8.1663e-05
5.72411e-06
8.63345e-05
5.81356e-06
9.10445e-05
5.86695e-06
9.57626e-05
5.88517e-06
0.000100455
5.86992e-06
0.000105086
5.82361e-06
0.000109614
5.74918e-06
0.000113998
5.64996e-06
0.000118191
5.52948e-06
0.000122147
5.39132e-06
0.000125816
5.23892e-06
0.000129149
5.07544e-06
0.000132096
4.90371e-06
0.000134612
4.72609e-06
0.000136651
4.54454e-06
0.000138175
4.36057e-06
0.000139152
4.17534e-06
0.000139558
3.98974e-06
0.000139378
3.80444e-06
0.00013861
3.61999e-06
0.000137258
3.43686e-06
0.000135342
3.25547e-06
0.000132889
3.07622e-06
0.000129934
2.89947e-06
0.00012652
2.72555e-06
0.000122695
2.55473e-06
0.00011851
2.3872e-06
0.000114018
2.2231e-06
0.000109273
2.06249e-06
0.000104328
1.90538e-06
9.92351e-05
1.75178e-06
9.40443e-05
1.60172e-06
8.88039e-05
1.45527e-06
8.35599e-05
1.31263e-06
7.83552e-05
1.1741e-06
7.32291e-05
1.04015e-06
6.82164e-05
9.11341e-07
6.33466e-05
7.88348e-07
5.86433e-05
6.7192e-07
5.41238e-05
5.62851e-07
4.97996e-05
4.61942e-07
4.56762e-05
3.69974e-07
4.17544e-05
2.87664e-07
3.80308e-05
2.15617e-07
3.44989e-05
1.54264e-07
3.11497e-05
1.0378e-07
2.7973e-05
6.40158e-08
2.49572e-05
3.4434e-08
2.20901e-05
1.40979e-08
1.93579e-05
1.71357e-09
1.67435e-05
-4.27753e-09
1.42222e-05
-5.60166e-09
1.17528e-05
-4.0789e-09
9.25317e-06
-1.56406e-09
6.50814e-06
2.74609e-06
-2.53828e-07
4.31197e-06
-5.098e-07
8.62732e-06
-6.82789e-07
1.14803e-05
-7.51998e-07
1.40167e-05
-7.21909e-07
1.64673e-05
-6.09744e-07
1.89044e-05
-4.35018e-07
2.13617e-05
-2.13996e-07
2.38641e-05
4.17269e-08
2.64345e-05
3.24534e-07
2.90944e-05
6.29441e-07
3.18634e-05
9.52888e-07
3.47583e-05
1.29186e-06
3.7793e-05
1.64332e-06
4.09785e-05
2.00386e-06
4.43231e-05
2.36956e-06
4.78319e-05
2.73598e-06
5.15073e-05
3.09822e-06
5.53486e-05
3.45109e-06
5.93518e-05
3.78927e-06
6.351e-05
4.10756e-06
6.78126e-05
4.40109e-06
7.22458e-05
4.66552e-06
7.67923e-05
4.89722e-06
8.14313e-05
5.0934e-06
8.61383e-05
5.25225e-06
9.08856e-05
5.3729e-06
9.5642e-05
5.45551e-06
0.000100373
5.50115e-06
0.00010504
5.51168e-06
0.000109604
5.4897e-06
0.00011402
5.43827e-06
0.000118243
5.36082e-06
0.000122224
5.26094e-06
0.000125916
5.14215e-06
0.000129267
5.00782e-06
0.000132231
4.861e-06
0.000134759
4.70439e-06
0.000136808
4.54024e-06
0.00013834
4.37041e-06
0.000139322
4.19641e-06
0.000139732
4.01945e-06
0.000139555
3.84053e-06
0.000138788
3.66047e-06
0.000137438
3.48004e-06
0.000135523
3.2999e-06
0.000133069
3.12067e-06
0.000130113
2.94294e-06
0.000126698
2.76721e-06
0.000122871
2.59391e-06
0.000118683
2.4234e-06
0.000114189
2.25593e-06
0.000109441
2.09169e-06
0.000104492
1.93078e-06
9.9396e-05
1.7733e-06
9.42017e-05
1.61936e-06
8.89579e-05
1.4691e-06
8.37102e-05
1.32279e-06
7.85015e-05
1.18081e-06
7.33711e-05
1.04364e-06
6.83535e-05
9.11926e-07
6.34783e-05
7.86366e-07
5.87688e-05
6.67749e-07
5.42425e-05
5.56886e-07
4.99105e-05
4.54602e-07
4.57785e-05
3.61691e-07
4.18473e-05
2.78861e-07
3.81137e-05
2.06706e-07
3.4571e-05
1.45627e-07
3.12108e-05
9.57506e-08
2.80228e-05
5.68583e-08
2.49961e-05
2.83351e-08
2.21186e-05
9.15755e-09
1.93771e-05
-2.04713e-09
1.67547e-05
-6.91476e-09
1.42271e-05
-7.25136e-09
1.17531e-05
-4.94388e-09
9.25086e-06
-1.90057e-09
6.5051e-06
2.74419e-06
2.02776e-07
4.10919e-06
3.32776e-07
8.49732e-06
4.47698e-07
1.13654e-05
5.98655e-07
1.38657e-05
8.03791e-07
1.62622e-05
1.06309e-06
1.86451e-05
1.36826e-06
2.10565e-05
1.70921e-06
2.35231e-05
2.07711e-06
2.60666e-05
2.46528e-06
2.87063e-05
2.86889e-06
3.14598e-05
3.28433e-06
3.43429e-05
3.70859e-06
3.73687e-05
4.13876e-06
4.05484e-05
4.5717e-06
4.38902e-05
5.00388e-06
4.73997e-05
5.43128e-06
5.10799e-05
5.84941e-06
5.49304e-05
6.2534e-06
5.89478e-05
6.63815e-06
6.31252e-05
6.99851e-06
6.74522e-05
7.32952e-06
7.19148e-05
7.62659e-06
7.64953e-05
7.88576e-06
8.11721e-05
8.10381e-06
8.59203e-05
8.2784e-06
9.0711e-05
8.40822e-06
9.55121e-05
8.49292e-06
0.000100288
8.53314e-06
0.000105
8.53044e-06
0.000109607
8.48712e-06
0.000114063
8.40615e-06
0.000118324
8.2909e-06
0.00012234
8.14502e-06
0.000126062
7.97225e-06
0.00012944
7.77624e-06
0.000132427
7.56043e-06
0.000134975
7.32799e-06
0.00013704
7.08173e-06
0.000138586
6.82417e-06
0.00013958
6.55748e-06
0.000139999
6.28364e-06
0.000139829
6.00442e-06
0.000139068
5.72145e-06
0.000137721
5.43628e-06
0.000135808
5.15038e-06
0.000133355
4.86512e-06
0.000130398
4.5818e-06
0.000126981
4.30157e-06
0.000123151
4.02545e-06
0.000118959
3.7543e-06
0.00011446
3.48883e-06
0.000109706
3.2296e-06
0.000104752
2.97707e-06
9.96485e-05
2.73158e-06
9.44472e-05
2.49349e-06
8.91959e-05
2.26314e-06
8.39405e-05
2.04094e-06
7.87237e-05
1.82738e-06
7.35846e-05
1.62303e-06
6.85579e-05
1.42852e-06
6.36728e-05
1.24455e-06
5.89528e-05
1.07181e-06
5.44152e-05
9.11039e-07
5.00713e-05
7.62903e-07
4.59267e-05
6.28042e-07
4.19822e-05
5.07015e-07
3.82347e-05
4.00239e-07
3.46778e-05
3.07936e-07
3.13031e-05
2.30052e-07
2.81007e-05
1.66188e-07
2.506e-05
1.15539e-07
2.21693e-05
7.69131e-08
1.94158e-05
4.87554e-08
1.67829e-05
2.92554e-08
1.42466e-05
1.64489e-08
1.17659e-05
8.34692e-09
9.25896e-06
3.03764e-09
6.51041e-06
2.74723e-06
4.51234e-07
3.65796e-06
9.72876e-07
7.97568e-06
1.47076e-06
1.08675e-05
1.96503e-06
1.33715e-05
2.47236e-06
1.57548e-05
2.9998e-06
1.81176e-05
3.54673e-06
2.05096e-05
4.10857e-06
2.29613e-05
4.67968e-06
2.54955e-05
5.25489e-06
2.81311e-05
5.83001e-06
3.08847e-05
6.40173e-06
3.37711e-05
6.96731e-06
3.68032e-05
7.52425e-06
3.99914e-05
8.07e-06
4.33444e-05
8.60176e-06
4.6868e-05
9.11637e-06
5.05653e-05
9.61025e-06
5.44365e-05
1.00794e-05
5.84787e-05
1.05195e-05
6.26851e-05
1.09262e-05
6.70456e-05
1.12948e-05
7.15462e-05
1.16212e-05
7.61689e-05
1.19016e-05
8.08918e-05
1.21326e-05
8.56893e-05
1.23118e-05
9.05318e-05
1.24377e-05
9.53862e-05
1.25097e-05
0.000100216
1.25282e-05
0.000104982
1.24945e-05
0.00010964
1.24107e-05
0.000114147
1.22798e-05
0.000118455
1.21051e-05
0.000122514
1.18904e-05
0.000126276
1.16397e-05
0.000129691
1.1357e-05
0.00013271
1.10461e-05
0.000135285
1.07108e-05
0.000137375
1.03546e-05
0.000138942
9.98069e-06
0.000139954
9.59203e-06
0.000140387
9.19147e-06
0.00014023
8.7817e-06
0.000139477
8.36534e-06
0.000138138
7.94486e-06
0.000136228
7.52268e-06
0.000133777
7.10111e-06
0.00013082
6.68226e-06
0.0001274
6.26811e-06
0.000123565
5.86038e-06
0.000119367
5.46055e-06
0.00011486
5.06988e-06
0.000110097
4.6894e-06
0.000105132
4.31995e-06
0.000100018
3.96222e-06
9.48049e-05
3.61684e-06
8.95413e-05
3.28439e-06
8.4273e-05
2.96544e-06
7.90427e-05
2.66061e-06
7.38895e-05
2.37055e-06
6.8848e-05
2.0959e-06
6.39475e-05
1.83729e-06
5.92114e-05
1.59536e-06
5.46571e-05
1.37067e-06
5.02959e-05
1.16373e-06
4.61336e-05
9.74982e-07
4.21709e-05
8.04765e-07
3.84049e-05
6.53281e-07
3.48293e-05
5.20518e-07
3.14359e-05
4.06203e-07
2.8215e-05
3.09709e-07
2.51564e-05
2.30019e-07
2.2249e-05
1.65721e-07
1.948e-05
1.15069e-07
1.68335e-05
7.60678e-08
1.42856e-05
4.66278e-08
1.17954e-05
2.47264e-08
9.28086e-06
8.69795e-09
6.52644e-06
2.75593e-06
7.79173e-07
2.87879e-06
1.8455e-06
6.90935e-06
2.91872e-06
9.79432e-06
3.96008e-06
1.23301e-05
4.96494e-06
1.475e-05
5.9373e-06
1.71453e-05
6.88106e-06
1.95658e-05
7.79781e-06
2.20445e-05
8.68726e-06
2.4606e-05
9.54823e-06
2.72701e-05
1.03794e-05
3.00536e-05
1.11794e-05
3.29711e-05
1.19473e-05
3.60352e-05
1.26821e-05
3.92566e-05
1.33828e-05
4.26438e-05
1.40479e-05
4.62028e-05
1.4676e-05
4.99372e-05
1.52649e-05
5.38477e-05
1.5812e-05
5.79315e-05
1.63144e-05
6.21827e-05
1.67687e-05
6.65913e-05
1.71713e-05
7.11435e-05
1.75189e-05
7.58213e-05
1.78079e-05
8.06028e-05
1.80356e-05
8.54616e-05
1.81996e-05
9.03678e-05
1.82984e-05
9.52874e-05
1.83314e-05
0.000100183
1.82989e-05
0.000105014
1.82021e-05
0.000109737
1.80433e-05
0.000114306
1.78253e-05
0.000118673
1.75517e-05
0.000122788
1.72264e-05
0.000126602
1.68539e-05
0.000130064
1.64384e-05
0.000133125
1.59845e-05
0.000135739
1.54967e-05
0.000137863
1.49791e-05
0.00013946
1.44359e-05
0.000140497
1.38712e-05
0.000140952
1.32888e-05
0.000140812
1.26927e-05
0.000140074
1.20867e-05
0.000138744
1.14744e-05
0.000136841
1.08596e-05
0.000134392
1.02458e-05
0.000131434
9.63619e-06
0.000128009
9.03379e-06
0.000124167
8.44129e-06
0.000119959
7.861e-06
0.00011544
7.29491e-06
0.000110663
6.74465e-06
0.000105682
6.21158e-06
0.000100551
5.69686e-06
9.53197e-05
5.20143e-06
9.00368e-05
4.72618e-06
8.47482e-05
4.27192e-06
7.94969e-05
3.8394e-06
7.4322e-05
3.42935e-06
6.9258e-05
3.04241e-06
6.43344e-05
2.67915e-06
5.95747e-05
2.34005e-06
5.49962e-05
2.02547e-06
5.06105e-05
1.73567e-06
4.64234e-05
1.4708e-06
4.24358e-05
1.23093e-06
3.86448e-05
1.01593e-06
3.50443e-05
8.25505e-07
3.16263e-05
6.59093e-07
2.83815e-05
5.15787e-07
2.52998e-05
3.94308e-07
2.23705e-05
2.93002e-07
1.95814e-05
2.09882e-07
1.69166e-05
1.42768e-07
1.43527e-05
8.94437e-08
1.18487e-05
4.78817e-08
9.32243e-06
1.66954e-08
6.55762e-06
2.77262e-06
9.94678e-07
1.88411e-06
2.59377e-06
5.31025e-06
4.34037e-06
8.04772e-06
6.09605e-06
1.05744e-05
7.79575e-06
1.30503e-05
9.41152e-06
1.55295e-05
1.09351e-05
1.80422e-05
1.23673e-05
2.06123e-05
1.37124e-05
2.32609e-05
1.49755e-05
2.6007e-05
1.6161e-05
2.8868e-05
1.72728e-05
3.18594e-05
1.83136e-05
3.49944e-05
1.9286e-05
3.82843e-05
2.01916e-05
4.17381e-05
2.10319e-05
4.53626e-05
2.18074e-05
4.91617e-05
2.25183e-05
5.31368e-05
2.31639e-05
5.72858e-05
2.37433e-05
6.16034e-05
2.42546e-05
6.60801e-05
2.46956e-05
7.07025e-05
2.50639e-05
7.5453e-05
2.53571e-05
8.03095e-05
2.55729e-05
8.52458e-05
2.57095e-05
9.02312e-05
2.57655e-05
9.52314e-05
2.57406e-05
0.000100208
2.56352e-05
0.00010512
2.54506e-05
0.000109922
2.51892e-05
0.000114567
2.48539e-05
0.000119008
2.44485e-05
0.000123193
2.39776e-05
0.000127072
2.34458e-05
0.000130595
2.28582e-05
0.000133713
2.22199e-05
0.000136377
2.15363e-05
0.000138547
2.08126e-05
0.000140183
2.0054e-05
0.000141255
1.92657e-05
0.00014174
1.84531e-05
0.000141625
1.76214e-05
0.000140905
1.67759e-05
0.000139589
1.59219e-05
0.000137695
1.50645e-05
0.000135249
1.42086e-05
0.00013229
1.3359e-05
0.000128859
1.25199e-05
0.000125006
1.16952e-05
0.000120784
1.08882e-05
0.000116247
1.01017e-05
0.000111449
9.33819e-06
0.000106446
8.59966e-06
0.00010129
7.88775e-06
9.60316e-05
7.20388e-06
9.07206e-05
6.54926e-06
8.54028e-05
5.92496e-06
8.01212e-05
5.33192e-06
7.4915e-05
4.77094e-06
6.9819e-05
4.24266e-06
6.48627e-05
3.74756e-06
6.00698e-05
3.28593e-06
5.54579e-05
2.85786e-06
5.10386e-05
2.46332e-06
4.68179e-05
2.10212e-06
4.2797e-05
1.77394e-06
3.8973e-05
1.4783e-06
3.53399e-05
1.21456e-06
3.189e-05
9.81806e-07
2.86142e-05
7.78805e-07
2.55028e-05
6.03979e-07
2.25453e-05
4.55379e-07
1.973e-05
3.30772e-07
1.70413e-05
2.27757e-07
1.44557e-05
1.43977e-07
1.19325e-05
7.74005e-08
9.389e-06
2.69335e-08
6.60809e-06
2.79956e-06
9.54921e-07
9.29189e-07
2.8059e-06
3.45928e-06
5.0577e-06
5.79592e-06
7.49272e-06
8.13938e-06
9.96567e-06
1.05774e-05
1.23789e-05
1.31163e-05
1.46726e-05
1.57486e-05
1.68158e-05
1.84691e-05
1.87981e-05
2.12786e-05
2.06218e-05
2.41833e-05
2.22957e-05
2.71941e-05
2.38307e-05
3.03243e-05
2.52376e-05
3.35875e-05
2.65255e-05
3.69963e-05
2.77021e-05
4.05616e-05
2.87732e-05
4.42915e-05
2.97434e-05
4.81915e-05
3.06161e-05
5.22641e-05
3.13936e-05
5.65084e-05
3.20772e-05
6.09198e-05
3.26673e-05
6.549e-05
3.31636e-05
7.02062e-05
3.35653e-05
7.50513e-05
3.38712e-05
8.00037e-05
3.40799e-05
8.50371e-05
3.41903e-05
9.01208e-05
3.42017e-05
9.52199e-05
3.41142e-05
0.000100296
3.39283e-05
0.000105305
3.36458e-05
0.000110204
3.32692e-05
0.000114944
3.2802e-05
0.000119475
3.22482e-05
0.000123747
3.16129e-05
0.000127708
3.09014e-05
0.000131307
3.01194e-05
0.000134495
2.92731e-05
0.000137224
2.83686e-05
0.000139451
2.74123e-05
0.00014114
2.64107e-05
0.000142257
2.53704e-05
0.000142781
2.42982e-05
0.000142697
2.32008e-05
0.000142003
2.20854e-05
0.000140705
2.09586e-05
0.000138821
1.98276e-05
0.00013638
1.86987e-05
0.000133418
1.75782e-05
0.000129979
1.6472e-05
0.000126113
1.5385e-05
0.000121871
1.43219e-05
0.00011731
1.32865e-05
0.000112485
1.22821e-05
0.00010745
1.13114e-05
0.00010226
1.03767e-05
9.69663e-05
9.47973e-06
9.16176e-05
8.62223e-06
8.62603e-05
7.80553e-06
8.09379e-05
7.03074e-06
7.56898e-05
6.29876e-06
7.0551e-05
5.61024e-06
6.55512e-05
4.96554e-06
6.07145e-05
4.36473e-06
5.60587e-05
3.80768e-06
5.15957e-05
3.29398e-06
4.73316e-05
2.82307e-06
4.32679e-05
2.39423e-06
3.94018e-05
2.00662e-06
3.57276e-05
1.65916e-06
3.22375e-05
1.35059e-06
2.89228e-05
1.07934e-06
2.5774e-05
8.43506e-07
2.27811e-05
6.40821e-07
1.99326e-05
4.68777e-07
1.72133e-05
3.24738e-07
1.45997e-05
2.06186e-07
1.2051e-05
1.11066e-07
9.48412e-06
3.8611e-08
6.68055e-06
2.83817e-06
6.6476e-07
2.64428e-07
2.28475e-06
1.83929e-06
4.5242e-06
3.55646e-06
7.19635e-06
5.46723e-06
1.0139e-05
7.63468e-06
1.32033e-05
1.0052e-05
1.62607e-05
1.26912e-05
1.9211e-05
1.55188e-05
2.19859e-05
1.85037e-05
2.45472e-05
2.1622e-05
2.68819e-05
2.48595e-05
2.8994e-05
2.82122e-05
3.08973e-05
3.16842e-05
3.26092e-05
3.52845e-05
3.41466e-05
3.90241e-05
3.55244e-05
4.29137e-05
3.67542e-05
4.69617e-05
3.78453e-05
5.1173e-05
3.88044e-05
5.55492e-05
3.96366e-05
6.00876e-05
4.03453e-05
6.47812e-05
4.09328e-05
6.96186e-05
4.14004e-05
7.45837e-05
4.17486e-05
7.96555e-05
4.19775e-05
8.48082e-05
4.20872e-05
9.00112e-05
4.20778e-05
9.52293e-05
4.195e-05
0.000100423
4.1705e-05
0.00010555
4.1345e-05
0.000110564
4.08729e-05
0.000115416
4.02927e-05
0.000120055
3.9609e-05
0.000124431
3.88274e-05
0.000128489
3.79538e-05
0.00013218
3.6995e-05
0.000135453
3.59578e-05
0.000138261
3.48495e-05
0.00014056
3.36776e-05
0.000142311
3.24498e-05
0.000143485
3.11742e-05
0.000144056
2.98588e-05
0.000144012
2.8512e-05
0.000143349
2.71425e-05
0.000142074
2.57587e-05
0.000140205
2.43692e-05
0.00013777
2.29821e-05
0.000134806
2.16051e-05
0.000131356
2.02455e-05
0.000127472
1.89097e-05
0.000123207
1.76033e-05
0.000118616
1.63313e-05
0.000113757
1.50977e-05
0.000108684
1.3906e-05
0.000103452
1.2759e-05
9.81134e-05
1.1659e-05
9.27175e-05
1.0608e-05
8.73113e-05
9.60766e-06
8.19383e-05
8.65927e-06
7.66382e-05
7.76382e-06
7.14464e-05
6.92196e-06
6.6393e-05
6.13399e-06
6.15024e-05
5.39982e-06
5.67928e-05
4.71903e-06
5.22764e-05
4.09096e-06
4.79597e-05
3.5147e-06
4.38442e-05
2.98918e-06
3.99273e-05
2.51317e-06
3.62036e-05
2.08528e-06
3.26654e-05
1.70389e-06
2.93042e-05
1.36711e-06
2.61108e-05
1.07272e-06
2.30755e-05
8.18178e-07
2.01872e-05
6.0069e-07
1.74308e-05
4.17389e-07
1.4783e-05
2.65588e-07
1.22028e-05
1.43211e-07
9.6065e-06
4.97694e-08
6.77399e-06
2.88794e-06
3.34508e-07
-7.008e-08
1.42492e-06
7.4888e-07
3.15258e-06
1.8288e-06
5.4498e-06
3.17001e-06
8.23898e-06
4.84551e-06
1.14111e-05
6.87984e-06
1.48322e-05
9.27011e-06
1.8358e-05
1.1993e-05
2.18518e-05
1.50099e-05
2.51998e-05
1.8274e-05
2.83208e-05
2.17385e-05
3.11687e-05
2.53643e-05
3.37283e-05
2.91246e-05
3.60069e-05
3.30059e-05
3.80243e-05
3.70067e-05
3.98052e-05
4.11328e-05
4.13733e-05
4.53936e-05
4.27485e-05
4.97978e-05
4.39466e-05
5.43512e-05
4.49791e-05
5.90551e-05
4.58546e-05
6.39057e-05
4.65791e-05
6.88942e-05
4.71567e-05
7.40061e-05
4.75905e-05
7.92217e-05
4.78824e-05
8.45163e-05
4.8034e-05
8.98595e-05
4.80467e-05
9.52166e-05
4.79221e-05
0.000100548
4.76622e-05
0.00010581
4.72696e-05
0.000110957
4.67481e-05
0.000115938
4.61019e-05
0.000120702
4.53365e-05
0.000125196
4.44579e-05
0.000129368
4.34729e-05
0.000133165
4.23888e-05
0.000136537
4.12135e-05
0.000139436
3.99553e-05
0.000141818
3.86226e-05
0.000143644
3.72244e-05
0.000144883
3.57696e-05
0.000145511
3.42679e-05
0.000145514
3.27289e-05
0.000144888
3.11624e-05
0.000143641
2.95783e-05
0.000141789
2.79867e-05
0.000139362
2.63968e-05
0.000136395
2.4818e-05
0.000132935
2.32584e-05
0.000129032
2.17257e-05
0.00012474
2.02266e-05
0.000120115
1.87667e-05
0.000115217
1.7351e-05
0.0001101
1.59833e-05
0.00010482
1.46672e-05
9.94295e-05
1.34052e-05
9.39795e-05
1.21998e-05
8.85168e-05
1.10526e-05
8.30854e-05
9.96526e-06
7.77256e-05
8.93882e-06
7.24729e-05
7.97395e-06
6.73579e-05
7.07092e-06
6.24055e-05
6.22953e-06
5.76342e-05
5.44923e-06
5.30567e-05
4.72912e-06
4.86798e-05
4.06807e-06
4.45052e-05
3.46474e-06
4.05306e-05
2.91764e-06
3.67507e-05
2.42511e-06
3.31579e-05
1.98527e-06
2.9744e-05
1.59598e-06
2.65001e-05
1.25475e-06
2.34167e-05
9.58808e-07
2.04831e-05
7.05116e-07
1.76845e-05
4.90611e-07
1.49975e-05
3.12465e-07
1.2381e-05
1.6856e-07
9.7504e-06
5.85847e-08
6.88396e-06
2.94652e-06
1.57771e-07
-2.27851e-07
8.0095e-07
1.05701e-07
1.9252e-06
7.04547e-07
3.55944e-06
1.53577e-06
5.73285e-06
2.6721e-06
8.43962e-06
4.17307e-06
1.16272e-05
6.08253e-06
1.51962e-05
8.42403e-06
1.90101e-05
1.1196e-05
2.2913e-05
1.43711e-05
2.67514e-05
1.79001e-05
3.0395e-05
2.17206e-05
3.37511e-05
2.57685e-05
3.6769e-05
2.9988e-05
3.9436e-05
3.43397e-05
4.17666e-05
3.88022e-05
4.379e-05
4.33702e-05
4.55397e-05
4.80481e-05
4.70464e-05
5.28445e-05
4.8335e-05
5.77664e-05
4.94244e-05
6.28164e-05
5.03279e-05
6.79907e-05
5.1055e-05
7.32789e-05
5.16125e-05
7.86643e-05
5.20049e-05
8.41238e-05
5.22359e-05
8.96285e-05
5.23084e-05
9.51441e-05
5.22252e-05
0.000100631
5.19893e-05
0.000106046
5.16042e-05
0.000111342
5.10741e-05
0.000116468
5.0404e-05
0.000121372
4.95999e-05
0.000126
4.86684e-05
0.0001303
4.76172e-05
0.000134217
4.64541e-05
0.0001377
4.51881e-05
0.000140702
4.38281e-05
0.000143178
4.23837e-05
0.000145089
4.08648e-05
0.000146402
3.92814e-05
0.000147094
3.76441e-05
0.000147151
3.59638e-05
0.000146569
3.42513e-05
0.000145353
3.25179e-05
0.000143523
3.07744e-05
0.000141105
2.90316e-05
0.000138138
2.72996e-05
0.000134667
2.55878e-05
0.000130744
2.39048e-05
0.000126423
2.2258e-05
0.000121762
2.0654e-05
0.000116821
1.90982e-05
0.000111655
1.75951e-05
0.000106323
1.61484e-05
0.000100876
1.47614e-05
9.53666e-05
1.34364e-05
8.98418e-05
1.21755e-05
8.43463e-05
1.09803e-05
7.89207e-05
9.85204e-06
7.36011e-05
8.79142e-06
6.84185e-05
7.7987e-06
6.33982e-05
6.87366e-06
5.85593e-05
6.01564e-06
5.39148e-05
5.22362e-06
4.94718e-05
4.49633e-06
4.52325e-05
3.83225e-06
4.11947e-05
3.2297e-06
3.73532e-05
2.68683e-06
3.37008e-05
2.20159e-06
3.02293e-05
1.77161e-06
2.69301e-05
1.39421e-06
2.37941e-05
1.0664e-06
2.08109e-05
7.84953e-07
1.79659e-05
5.46621e-07
1.52359e-05
3.48428e-07
1.25791e-05
1.88175e-07
9.91066e-06
6.55691e-08
7.00657e-06
3.01209e-06
8.22866e-08
-3.10138e-07
4.62406e-07
-2.74418e-07
1.15163e-06
1.53261e-08
2.20051e-06
4.86888e-07
3.68356e-06
1.18905e-06
5.66912e-06
2.18751e-06
8.1992e-06
3.55245e-06
1.12731e-05
5.35011e-06
1.4837e-05
7.63219e-06
1.87823e-05
1.04258e-05
2.29562e-05
1.37261e-05
2.71823e-05
1.74945e-05
3.12872e-05
2.16636e-05
3.51265e-05
2.61487e-05
3.86022e-05
3.0864e-05
4.16677e-05
3.57367e-05
4.4321e-05
4.07169e-05
4.65897e-05
4.57794e-05
4.85154e-05
5.09188e-05
5.0141e-05
5.61408e-05
5.15035e-05
6.14539e-05
5.26312e-05
6.68629e-05
5.35446e-05
7.23655e-05
5.42579e-05
7.7951e-05
5.47809e-05
8.36009e-05
5.51205e-05
8.9289e-05
5.52818e-05
9.49827e-05
5.52695e-05
0.000100644
5.50875e-05
0.000106228
5.47404e-05
0.000111689
5.42331e-05
0.000116975
5.35712e-05
0.000122034
5.27613e-05
0.00012681
5.18108e-05
0.00013125
5.07278e-05
0.0001353
4.95211e-05
0.000138907
4.82003e-05
0.000142023
4.67752e-05
0.000144603
4.52563e-05
0.000146607
4.36543e-05
0.000148004
4.19804e-05
0.000148768
4.02459e-05
0.000148886
3.84627e-05
0.000148352
3.66427e-05
0.000147173
3.4798e-05
0.000145367
3.29406e-05
0.000142963
3.10821e-05
0.000139997
2.92336e-05
0.000136516
2.74054e-05
0.000132572
2.56068e-05
0.000128221
2.38463e-05
0.000123523
2.21308e-05
0.000118536
2.04663e-05
0.00011332
1.8858e-05
0.000107931
1.73098e-05
0.000102424
1.58252e-05
9.68512e-05
1.44068e-05
9.12602e-05
1.30569e-05
8.56963e-05
1.17771e-05
8.02004e-05
1.05689e-05
7.48094e-05
9.43295e-06
6.95545e-05
8.36955e-06
6.44616e-05
7.3785e-06
5.95503e-05
6.45909e-06
5.48342e-05
5.61027e-06
5.03206e-05
4.83064e-06
4.60121e-05
4.11861e-06
4.19068e-05
3.47238e-06
3.79995e-05
2.88995e-06
3.42832e-05
2.36913e-06
3.07501e-05
1.90739e-06
2.73918e-05
1.50189e-06
2.41996e-05
1.14943e-06
2.11634e-05
8.46623e-07
1.82687e-05
5.90022e-07
1.54925e-05
3.76499e-07
1.27927e-05
2.03707e-07
1.00834e-05
7.12846e-08
7.13899e-06
3.08337e-06
4.58713e-08
-3.56009e-07
2.83764e-07
-5.12311e-07
7.16081e-07
-4.16991e-07
1.37781e-06
-1.74836e-07
2.33497e-06
2.31887e-07
3.66908e-06
8.53395e-07
5.46419e-06
1.75734e-06
7.79149e-06
3.02282e-06
1.0691e-05
4.73272e-06
1.41537e-05
6.96303e-06
1.811e-05
9.7698e-06
2.24283e-05
1.31762e-05
2.69285e-05
1.71634e-05
3.14082e-05
2.1669e-05
3.56762e-05
2.65961e-05
3.95825e-05
3.18303e-05
4.30369e-05
3.72625e-05
4.60098e-05
4.28065e-05
4.85195e-05
4.84091e-05
5.06119e-05
5.40484e-05
5.23418e-05
5.97241e-05
5.37596e-05
6.54452e-05
5.49055e-05
7.12196e-05
5.58088e-05
7.70477e-05
5.64897e-05
8.292e-05
5.69619e-05
8.88168e-05
5.72349e-05
9.47097e-05
5.73159e-05
0.000100563
5.72108e-05
0.000106333
5.69252e-05
0.000111974
5.6465e-05
0.000117435
5.58365e-05
0.000122662
5.50468e-05
0.0001276
5.41039e-05
0.000132193
5.30166e-05
0.000136387
5.17944e-05
0.000140129
5.04474e-05
0.00014337
4.89864e-05
0.000146064
4.74227e-05
0.000148171
4.57677e-05
0.000149659
4.40335e-05
0.000150503
4.22323e-05
0.000150687
4.03768e-05
0.000150207
3.84798e-05
0.00014907
3.65543e-05
0.000147293
3.46129e-05
0.000144904
3.26683e-05
0.000141941
3.07324e-05
0.000138452
2.88162e-05
0.000134488
2.69299e-05
0.000130108
2.50823e-05
0.00012537
2.32812e-05
0.000120337
2.15331e-05
0.000115068
1.98435e-05
0.000109621
1.82167e-05
0.000104051
1.66563e-05
9.84116e-05
1.51653e-05
9.27512e-05
1.3746e-05
8.71156e-05
1.24002e-05
8.15462e-05
1.11294e-05
7.60802e-05
9.93432e-06
7.07496e-05
8.81536e-06
6.55806e-05
7.77232e-06
6.05934e-05
6.80454e-06
5.58019e-05
5.91092e-06
5.12143e-05
5.09006e-06
4.6833e-05
4.34029e-06
4.26565e-05
3.65975e-06
3.868e-05
3.04636e-06
3.48966e-05
2.49782e-06
3.12986e-05
2.01146e-06
2.78781e-05
1.58429e-06
2.46268e-05
1.21296e-06
2.15347e-05
8.93872e-07
1.85878e-05
6.23415e-07
1.57629e-05
3.98269e-07
1.30178e-05
2.15926e-07
1.02658e-05
7.59098e-08
7.27901e-06
3.15928e-06
2.93129e-08
-3.85322e-07
1.89739e-07
-6.72738e-07
4.78122e-07
-7.05373e-07
9.12733e-07
-6.09448e-07
1.53735e-06
-3.92729e-07
2.41519e-06
-2.44444e-08
3.62543e-06
5.47105e-07
5.25673e-06
1.39152e-06
7.39581e-06
2.59363e-06
1.01106e-05
4.24823e-06
1.34297e-05
6.45071e-06
1.73229e-05
9.28303e-06
2.16894e-05
1.27968e-05
2.63609e-05
1.69976e-05
3.11216e-05
2.18354e-05
3.5744e-05
2.72079e-05
4.00295e-05
3.2977e-05
4.38398e-05
3.89962e-05
4.71107e-05
4.51382e-05
4.98438e-05
5.13152e-05
5.20851e-05
5.74828e-05
5.38994e-05
6.36309e-05
5.53509e-05
6.9768e-05
5.6493e-05
7.59057e-05
5.73648e-05
8.20481e-05
5.79936e-05
8.8188e-05
5.83977e-05
9.43057e-05
5.85894e-05
0.000100371
5.85781e-05
0.000106345
5.83713e-05
0.000112181
5.7976e-05
0.000117831
5.73995e-05
0.000123239
5.66495e-05
0.00012835
5.57346e-05
0.000133108
5.4664e-05
0.000137458
5.34479e-05
0.000141345
5.20971e-05
0.000144721
5.0623e-05
0.000147538
4.90375e-05
0.000149757
4.73529e-05
0.000151344
4.55821e-05
0.000152273
4.37381e-05
0.000152531
4.18343e-05
0.000152111
3.98841e-05
0.00015102
3.79014e-05
0.000149276
3.58997e-05
0.000146906
3.38922e-05
0.000143949
3.18915e-05
0.000140452
2.99095e-05
0.00013647
2.79568e-05
0.00013206
2.60432e-05
0.000127284
2.41767e-05
0.000122204
2.23645e-05
0.00011688
2.06122e-05
0.000111373
1.89246e-05
0.000105739
1.73056e-05
0.000100031
1.57581e-05
9.42987e-05
1.42848e-05
8.85889e-05
1.28874e-05
8.29436e-05
1.15675e-05
7.74001e-05
1.0326e-05
7.19911e-05
9.16325e-06
6.67433e-05
8.0792e-06
6.16774e-05
7.0732e-06
5.68079e-05
6.14419e-06
5.21433e-05
5.29077e-06
4.76864e-05
4.51126e-06
4.3436e-05
3.80377e-06
3.93875e-05
3.16616e-06
3.55342e-05
2.59605e-06
3.18687e-05
2.09069e-06
2.83835e-05
1.64692e-06
2.50706e-05
1.26124e-06
2.19204e-05
9.29862e-07
1.89192e-05
6.48991e-07
1.60438e-05
4.15108e-07
1.32517e-05
2.25538e-07
1.04554e-05
7.96675e-08
7.42488e-06
3.23895e-06
2.07879e-08
-4.0611e-07
1.36482e-07
-7.88432e-07
3.41723e-07
-9.10614e-07
6.4482e-07
-9.12544e-07
1.0721e-06
-8.2001e-07
1.66529e-06
-6.17631e-07
2.48245e-06
-2.70054e-07
3.59813e-06
2.75836e-07
5.10044e-06
1.09132e-06
7.083e-06
2.26567e-06
9.63092e-06
3.90279e-06
1.28004e-05
6.11354e-06
1.65954e-05
9.00186e-06
2.09475e-05
1.26455e-05
2.57082e-05
1.70746e-05
3.0661e-05
2.22551e-05
3.55542e-05
2.80838e-05
4.01479e-05
3.44025e-05
4.4258e-05
4.10281e-05
4.7783e-05
4.77902e-05
5.07042e-05
5.45616e-05
5.30635e-05
6.12715e-05
5.49341e-05
6.78975e-05
5.63931e-05
7.44466e-05
5.75068e-05
8.09344e-05
5.83249e-05
8.73698e-05
5.88819e-05
9.37487e-05
5.92007e-05
0.000100052
5.92971e-05
0.000106248
5.91823e-05
0.000112296
5.88656e-05
0.000118147
5.83555e-05
0.000123749
5.76606e-05
0.000129045
5.67898e-05
0.000133979
5.57532e-05
0.000138494
5.45611e-05
0.000142537
5.32251e-05
0.000146057
5.17571e-05
0.000149006
5.01696e-05
0.000151344
4.84756e-05
0.000153037
4.66886e-05
0.00015406
4.48224e-05
0.000154397
4.28909e-05
0.000154043
4.09083e-05
0.000153003
3.88891e-05
0.000151295
3.68475e-05
0.000148947
3.47972e-05
0.000145999
3.27516e-05
0.000142498
3.07232e-05
0.000138498
2.87232e-05
0.00013406
2.67618e-05
0.000129245
2.48477e-05
0.000124118
2.29883e-05
0.00011874
2.11898e-05
0.000113172
1.94571e-05
0.000107471
1.77943e-05
0.000101693
1.62046e-05
9.58883e-05
1.46906e-05
9.01029e-05
1.32543e-05
8.43798e-05
1.18973e-05
7.87571e-05
1.06205e-05
7.32678e-05
9.42447e-06
6.79393e-05
8.30911e-06
6.27928e-05
7.27389e-06
5.78432e-05
6.31781e-06
5.30994e-05
5.43951e-06
4.85647e-05
4.63734e-06
4.42382e-05
3.90941e-06
4.01154e-05
3.25358e-06
3.619e-05
2.66738e-06
3.24549e-05
2.14798e-06
2.89029e-05
1.6921e-06
2.55265e-05
1.29607e-06
2.23164e-05
9.55926e-07
1.92593e-05
6.67665e-07
1.6332e-05
4.27584e-07
1.34918e-05
2.32827e-07
1.06501e-05
8.26479e-08
7.57506e-06
3.3216e-06
1.69728e-08
-4.23083e-07
1.06016e-07
-8.77474e-07
2.60989e-07
-1.06559e-06
4.84995e-07
-1.13655e-06
7.93861e-07
-1.12888e-06
1.21413e-06
-1.0379e-06
1.78447e-06
-8.40399e-07
2.55839e-06
-4.98076e-07
3.60586e-06
4.38463e-08
5.01248e-06
8.59056e-07
6.87396e-06
2.04131e-06
9.28492e-06
3.70259e-06
1.23201e-05
5.96673e-06
1.60094e-05
8.95611e-06
2.03131e-05
1.2771e-05
2.51045e-05
1.74637e-05
3.01731e-05
2.30151e-05
3.52532e-05
2.93225e-05
4.00726e-05
3.62087e-05
4.44079e-05
4.34549e-05
4.8123e-05
5.08466e-05
5.11781e-05
5.82163e-05
5.36105e-05
6.54652e-05
5.54994e-05
7.25577e-05
5.69339e-05
7.94999e-05
5.79922e-05
8.63116e-05
5.87337e-05
9.30072e-05
5.91996e-05
9.95861e-05
5.94175e-05
0.00010603
5.94061e-05
0.000112308
5.91787e-05
0.000118375
5.87462e-05
0.000124181
5.81184e-05
0.000129672
5.73051e-05
0.000134792
5.63168e-05
0.000139483
5.51643e-05
0.00014369
5.38594e-05
0.000147362
5.24146e-05
0.000150451
5.0843e-05
0.000152916
4.9158e-05
0.000154722
4.73736e-05
0.000155845
4.55042e-05
0.000156267
4.35643e-05
0.000155983
4.15688e-05
0.000154998
3.95325e-05
0.000153331
3.74703e-05
0.00015101
3.53964e-05
0.000148073
3.33247e-05
0.00014457
3.12683e-05
0.000140555
2.92389e-05
0.00013609
2.72472e-05
0.000131237
2.53023e-05
0.000126063
2.34121e-05
0.00012063
2.1583e-05