/*--------------------------------*- C++ -*----------------------------------*\
  =========                 |
  \\      /  F ield         | OpenFOAM: The Open Source CFD Toolbox
   \\    /   O peration     | Website:  https://openfoam.org
    \\  /    A nd           | Version:  7
     \\/     M anipulation  |
\*---------------------------------------------------------------------------*/
FoamFile
{
    version     2.0;
    format      ascii;
    class       volSymmTensorField;
    location    "0";
    object      R;
}
// * * * * * * * * * * * * * * * * * * * * * * * * * * * * * * * * * * * * * //

dimensions      [0 2 -2 0 0 0 0];

internalField   nonuniform List<symmTensor> 
10981
(
(3.40078e-06 -6.49475e-07 -5.78368e-32 3.40586e-06 0 3.40342e-06)
(1.84029e-05 -1.01971e-05 -2.21883e-30 1.8241e-05 0 1.83286e-05)
(2.28576e-05 -1.11552e-05 0 2.19612e-05 0 2.24176e-05)
(2.52012e-05 -1.14652e-05 0 2.3284e-05 0 2.42392e-05)
(2.68184e-05 -1.1172e-05 0 2.3781e-05 0 2.52972e-05)
(2.81748e-05 -1.04156e-05 6.83302e-30 2.4077e-05 0 2.61238e-05)
(2.9453e-05 -9.37198e-06 -1.83936e-29 2.44078e-05 0 2.69268e-05)
(3.07038e-05 -8.18711e-06 0 2.4829e-05 0 2.77612e-05)
(3.19252e-05 -6.95725e-06 0 2.53264e-05 0 2.86188e-05)
(3.30976e-05 -5.73327e-06 0 2.58693e-05 0 2.94755e-05)
(3.42004e-05 -4.53943e-06 -5.25706e-29 2.64296e-05 0 3.03058e-05)
(3.52111e-05 -3.38604e-06 0 2.69893e-05 0 3.10903e-05)
(3.61087e-05 -2.28036e-06 0 2.7539e-05 0 3.18138e-05)
(3.68726e-05 -1.2287e-06 1.94539e-28 2.80755e-05 0 3.24639e-05)
(3.7483e-05 -2.42985e-07 -2.32103e-28 2.85998e-05 0 3.3032e-05)
(3.79239e-05 6.63779e-07 0 2.91129e-05 0 3.35094e-05)
(3.8181e-05 1.48046e-06 0 2.96164e-05 0 3.38901e-05)
(3.82448e-05 2.18954e-06 0 3.01079e-05 0 3.41695e-05)
(3.81142e-05 2.7771e-06 8.31825e-28 3.05816e-05 0 3.43417e-05)
(3.77915e-05 3.23506e-06 -9.35926e-28 3.10282e-05 0 3.44039e-05)
(3.72836e-05 3.55692e-06 0 3.1435e-05 0 3.43547e-05)
(3.66055e-05 3.73992e-06 2.29969e-27 3.17857e-05 0 3.41922e-05)
(3.57761e-05 3.78908e-06 0 3.20623e-05 0 3.3916e-05)
(3.48142e-05 3.71179e-06 -2.72349e-27 3.22477e-05 0 3.35283e-05)
(3.37442e-05 3.51931e-06 2.92703e-27 3.23236e-05 0 3.30311e-05)
(3.25866e-05 3.22801e-06 3.1219e-27 3.22764e-05 0 3.24295e-05)
(3.13654e-05 2.86078e-06 0 3.20934e-05 0 3.17278e-05)
(3.01007e-05 2.43644e-06 0 3.17673e-05 0 3.09328e-05)
(2.88109e-05 1.9736e-06 0 3.12954e-05 0 3.00517e-05)
(2.75098e-05 1.49812e-06 0 3.06806e-05 0 2.9094e-05)
(2.62087e-05 1.03084e-06 -7.8308e-27 2.99305e-05 0 2.80702e-05)
(2.49224e-05 5.89037e-07 0 2.90541e-05 0 2.69879e-05)
(2.36533e-05 1.9026e-07 8.2796e-27 2.80692e-05 0 2.5861e-05)
(2.24076e-05 -1.53764e-07 0 2.69943e-05 0 2.47007e-05)
(2.11886e-05 -4.33709e-07 8.63247e-27 2.58501e-05 0 2.35193e-05)
(2.0001e-05 -6.40914e-07 0 2.46573e-05 0 2.23288e-05)
(1.88456e-05 -7.75134e-07 8.90663e-27 2.34392e-05 0 2.11424e-05)
(1.77268e-05 -8.36829e-07 -9.02036e-27 2.22162e-05 0 1.9972e-05)
(1.66492e-05 -8.29445e-07 0 2.10071e-05 0 1.88289e-05)
(1.56186e-05 -7.60311e-07 0 1.98284e-05 0 1.77229e-05)
(1.46366e-05 -6.37822e-07 0 1.86958e-05 0 1.6666e-05)
(1.37116e-05 -4.70121e-07 0 1.76189e-05 0 1.56645e-05)
(1.28455e-05 -2.66647e-07 0 1.66072e-05 0 1.47267e-05)
(1.20478e-05 -3.64008e-08 0 1.56633e-05 0 1.38553e-05)
(1.13183e-05 2.12753e-07 0 1.47918e-05 0 1.30553e-05)
(1.06621e-05 4.7463e-07 0 1.39918e-05 0 1.23268e-05)
(1.00777e-05 7.43505e-07 -9.6086e-27 1.32631e-05 0 1.16709e-05)
(9.56841e-06 1.01317e-06 0 1.2602e-05 0 1.10848e-05)
(9.12941e-06 1.28299e-06 -9.59131e-27 1.20075e-05 0 1.05683e-05)
(8.7593e-06 1.54821e-06 0 1.14763e-05 0 1.0118e-05)
(8.45489e-06 1.8062e-06 -9.46588e-27 1.10063e-05 0 9.73097e-06)
(8.21311e-06 2.05571e-06 0 1.05953e-05 0 9.40396e-06)
(8.02737e-06 2.29212e-06 -4.60873e-27 1.02433e-05 0 9.13535e-06)
(7.89493e-06 2.51403e-06 0 9.94809e-06 0 8.92138e-06)
(7.81047e-06 2.72e-06 -4.42987e-27 9.70848e-06 0 8.75926e-06)
(7.76935e-06 2.9074e-06 0 9.52196e-06 0 8.64548e-06)
(7.76682e-06 3.07522e-06 0 9.38496e-06 0 8.57602e-06)
(7.79913e-06 3.2236e-06 4.10299e-27 9.29188e-06 0 8.5454e-06)
(7.86069e-06 3.35273e-06 0 9.23689e-06 0 8.54842e-06)
(7.94598e-06 3.46424e-06 1.93609e-27 9.21398e-06 0 8.58004e-06)
(8.05243e-06 3.56191e-06 1.87745e-27 9.21599e-06 0 8.63418e-06)
(8.17587e-06 3.64915e-06 0 9.23789e-06 0 8.70684e-06)
(8.31408e-06 3.73083e-06 0 9.27588e-06 0 8.79504e-06)
(8.46659e-06 3.81172e-06 0 9.32784e-06 0 8.89717e-06)
(8.63326e-06 3.89696e-06 0 9.39428e-06 0 9.01386e-06)
(8.81621e-06 3.99237e-06 0 9.47665e-06 0 9.14635e-06)
(9.01704e-06 4.10142e-06 0 9.57871e-06 0 9.29784e-06)
(9.23844e-06 4.22687e-06 7.06425e-28 9.70426e-06 0 9.47131e-06)
(9.48174e-06 4.3712e-06 0 9.8567e-06 0 9.66917e-06)
(9.7464e-06 4.53355e-06 -3.15738e-28 1.00377e-05 0 9.89208e-06)
(1.00281e-05 4.7103e-06 0 1.02446e-05 0 1.01363e-05)
(1.03158e-05 4.8961e-06 -2.78131e-28 1.0468e-05 0 1.03919e-05)
(1.05884e-05 5.08056e-06 -2.59332e-28 1.0688e-05 0 1.06382e-05)
(1.08096e-05 5.24884e-06 1.20118e-28 1.08683e-05 0 1.08389e-05)
(1.09159e-05 5.3784e-06 0 1.09453e-05 0 1.09306e-05)
(1.07886e-05 5.43183e-06 0 1.07994e-05 0 1.0794e-05)
(1.01645e-05 5.34152e-06 0 1.0166e-05 0 1.01651e-05)
(8.22785e-06 4.72046e-06 0 8.22669e-06 0 8.22727e-06)
(1.15227e-06 1.67787e-07 0 1.15224e-06 0 1.15226e-06)
(3.34288e-06 -6.44935e-07 5.22244e-28 3.35505e-06 -8.50883e-31 3.34905e-06)
(1.7695e-05 -9.91083e-06 6.82838e-28 1.79385e-05 5.06899e-30 1.78341e-05)
(2.18689e-05 -1.07314e-05 0 2.18983e-05 2.65354e-29 2.19055e-05)
(2.41056e-05 -1.10735e-05 0 2.35547e-05 0 2.38393e-05)
(2.56732e-05 -1.09387e-05 0 2.4298e-05 2.37171e-29 2.4997e-05)
(2.69812e-05 -1.03826e-05 -3.82334e-26 2.47052e-05 -3.26301e-29 2.58584e-05)
(2.82036e-05 -9.51352e-06 9.39092e-26 2.50351e-05 -7.8277e-29 2.66365e-05)
(2.941e-05 -8.45909e-06 -4.89123e-26 2.53852e-05 9.26715e-29 2.74162e-05)
(3.06147e-05 -7.31782e-06 0 2.57718e-05 0 2.82128e-05)
(3.18075e-05 -6.1571e-06 1.75776e-28 2.61806e-05 -1.35766e-28 2.90141e-05)
(3.29692e-05 -5.01564e-06 2.46349e-26 2.65921e-05 1.9719e-28 2.98007e-05)
(3.40773e-05 -3.91927e-06 1.47174e-25 2.69912e-05 1.87756e-28 3.05539e-05)
(3.51067e-05 -2.87713e-06 -1.56297e-25 2.73704e-05 4.19366e-28 3.12574e-05)
(3.60323e-05 -1.8991e-06 -6.56192e-26 2.77288e-05 -1.60608e-27 3.18979e-05)
(3.68261e-05 -9.90978e-07 7.10348e-26 2.80712e-05 8.99346e-28 3.24655e-05)
(3.74656e-05 -1.58096e-07 -2.95249e-25 2.8403e-05 5.58775e-28 3.29501e-05)
(3.79291e-05 5.86715e-07 6.4832e-25 2.87302e-05 2.87084e-29 3.33439e-05)
(3.81977e-05 1.24058e-06 -3.53368e-25 2.90581e-05 1.37679e-27 3.3642e-05)
(3.82622e-05 1.79609e-06 -6.07473e-25 2.93861e-05 -6.80681e-27 3.38378e-05)
(3.81193e-05 2.24067e-06 6.23216e-25 2.97093e-05 4.34638e-27 3.3927e-05)
(3.777e-05 2.57309e-06 -5.49762e-25 3.00198e-05 4.9044e-27 3.39077e-05)
(3.72257e-05 2.79204e-06 2.05851e-25 3.03038e-05 -1.35964e-26 3.37771e-05)
(3.65012e-05 2.895e-06 6.52332e-25 3.05446e-05 -7.05395e-27 3.35354e-05)
(3.56171e-05 2.88866e-06 3.81741e-26 3.07235e-05 1.85833e-26 3.3183e-05)
(3.45965e-05 2.77926e-06 -7.16255e-25 3.08219e-05 -7.84311e-27 3.27221e-05)
(3.34651e-05 2.5778e-06 -3.46499e-25 3.08212e-05 -1.92769e-26 3.21555e-05)
(3.22489e-05 2.30209e-06 -1.2961e-26 3.07051e-05 -3.8214e-27 3.1488e-05)
(3.09673e-05 1.96826e-06 0 3.04642e-05 0 3.07277e-05)
(2.9647e-05 1.5927e-06 -1.42232e-26 3.00889e-05 -6.2982e-31 2.98792e-05)
(2.83052e-05 1.19543e-06 -4.82873e-25 2.95776e-05 -8.02734e-27 2.89516e-05)
(2.69576e-05 7.97799e-07 1.11356e-24 2.89335e-05 2.85614e-26 2.79547e-05)
(2.56155e-05 4.15873e-07 5.13578e-25 2.81652e-05 1.58722e-26 2.68993e-05)
(2.42905e-05 6.58025e-08 -1.1118e-24 2.72844e-05 -2.61428e-26 2.57957e-05)
(2.29888e-05 -2.39423e-07 0 2.63076e-05 3.68049e-28 2.46564e-05)
(2.17166e-05 -4.87248e-07 -1.15295e-24 2.52537e-05 -2.34262e-26 2.34927e-05)
(2.04784e-05 -6.70667e-07 1.09857e-24 2.4143e-05 5.04447e-28 2.23176e-05)
(1.92772e-05 -7.88782e-07 -1.09139e-24 2.29972e-05 -2.89034e-26 2.11437e-05)
(1.8118e-05 -8.39445e-07 5.26525e-25 2.1837e-05 1.16272e-26 1.99826e-05)
(1.70023e-05 -8.24983e-07 3.56018e-26 2.06828e-05 7.75107e-27 1.88476e-05)
(1.59378e-05 -7.51949e-07 5.46599e-25 1.95507e-05 2.42042e-29 1.77479e-05)
(1.49259e-05 -6.2734e-07 -5.77018e-25 1.84573e-05 -2.55512e-29 1.66952e-05)
(1.39735e-05 -4.59701e-07 0 1.74137e-05 0 1.56968e-05)
(1.30853e-05 -2.5683e-07 -3.68428e-26 1.64289e-05 -1.63145e-30 1.47598e-05)
(1.22662e-05 -2.72064e-08 2.99447e-25 1.55082e-05 1.32599e-29 1.3889e-05)
(1.15173e-05 2.21223e-07 -2.97149e-25 1.46563e-05 -1.31581e-29 1.30888e-05)
(1.08437e-05 4.81472e-07 -3.01813e-25 1.38727e-05 -9.62744e-27 1.23594e-05)
(1.02435e-05 7.48844e-07 7.24122e-25 1.31582e-05 1.02862e-26 1.17021e-05)
(9.7189e-06 1.01865e-06 -1.87502e-26 1.25096e-05 -1.38019e-27 1.11147e-05)
(9.26706e-06 1.28714e-06 7.01544e-25 1.19254e-05 8.72697e-27 1.05957e-05)
(8.8835e-06 1.55121e-06 -2.97458e-25 1.14041e-05 -1.69948e-27 1.01436e-05)
(8.56783e-06 1.80825e-06 3.70363e-25 1.0942e-05 7.24391e-27 9.75396e-06)
(8.31356e-06 2.05629e-06 -1.82343e-26 1.05389e-05 3.84864e-27 9.4253e-06)
(8.11662e-06 2.29211e-06 4.56814e-25 1.01933e-05 2.96113e-27 9.15447e-06)
(7.97423e-06 2.5134e-06 -2.99705e-25 9.90316e-06 -1.16336e-27 8.93781e-06)
(7.87985e-06 2.71813e-06 3.05729e-25 9.66798e-06 2.36998e-27 8.77337e-06)
(7.83056e-06 2.90411e-06 -1.3478e-25 9.48428e-06 5.31689e-27 8.65656e-06)
(7.82034e-06 3.07134e-06 -1.31739e-25 9.34921e-06 6.7577e-27 8.58405e-06)
(7.84549e-06 3.21913e-06 3.01612e-27 9.25732e-06 -1.68048e-27 8.55039e-06)
(7.90022e-06 3.34668e-06 1.16666e-25 9.20332e-06 -2.18886e-27 8.55086e-06)
(7.98048e-06 3.45799e-06 -2.96419e-25 9.18052e-06 2.98338e-27 8.5796e-06)
(8.08188e-06 3.55569e-06 1.81543e-25 9.18303e-06 -3.66159e-27 8.6317e-06)
(8.20142e-06 3.64291e-06 -5.63768e-26 9.20558e-06 -3.15047e-27 8.7028e-06)
(8.33692e-06 3.7253e-06 -5.45222e-26 9.24471e-06 -2.41434e-30 8.79017e-06)
(8.48737e-06 3.80724e-06 -3.27506e-27 9.29871e-06 -1.45023e-31 8.89252e-06)
(8.65364e-06 3.89462e-06 3.14464e-27 9.36781e-06 1.39249e-31 9.01016e-06)
(8.83682e-06 3.9921e-06 0 9.45419e-06 0 9.14499e-06)
(9.03936e-06 4.10371e-06 0 9.56134e-06 2.24526e-27 9.2999e-06)
(9.26344e-06 4.23279e-06 -3.78539e-26 9.69309e-06 -1.82086e-28 9.47787e-06)
(9.51061e-06 4.38021e-06 2.07066e-26 9.85286e-06 -3.0122e-27 9.68134e-06)
(9.77975e-06 4.54578e-06 6.55218e-27 1.00419e-05 8.52548e-29 9.91052e-06)
(1.0066e-05 4.72612e-06 -1.83776e-26 1.02571e-05 -2.81e-28 1.01613e-05)
(1.03579e-05 4.91435e-06 5.13585e-27 1.04884e-05 -1.15798e-27 1.04229e-05)
(1.06336e-05 5.1006e-06 2.09879e-26 1.07151e-05 1.66132e-27 1.06741e-05)
(1.08559e-05 5.26967e-06 5.57174e-27 1.09002e-05 8.93295e-28 1.08779e-05)
(1.09608e-05 5.39833e-06 3.90174e-31 1.09793e-05 -4.5508e-28 1.09699e-05)
(1.08291e-05 5.44972e-06 -3.06717e-27 1.08324e-05 -1.35818e-31 1.08306e-05)
(1.01976e-05 5.35607e-06 -2.81639e-27 1.01948e-05 -1.24716e-31 1.0196e-05)
(8.25021e-06 4.73042e-06 0 8.24743e-06 0 8.24876e-06)
(1.15611e-06 1.68294e-07 -3.44459e-30 1.15607e-06 -1.52532e-34 1.15609e-06)
(3.27278e-06 -6.60854e-07 7.99203e-28 3.301e-06 3.62302e-27 3.28524e-06)
(1.70001e-05 -9.62795e-06 -1.55633e-26 1.7641e-05 -1.13873e-25 1.73033e-05)
(2.08397e-05 -1.00675e-05 -1.63913e-30 2.16135e-05 3.27576e-31 2.11966e-05)
(2.2939e-05 -1.02409e-05 -6.21088e-26 2.34523e-05 -8.2761e-30 2.31487e-05)
(2.44719e-05 -1.0087e-05 6.90348e-26 2.43948e-05 -1.19915e-25 2.43839e-05)
(2.57883e-05 -9.5974e-06 1.98983e-23 2.49313e-05 2.67937e-26 2.53097e-05)
(2.70392e-05 -8.83629e-06 -4.95714e-23 2.53011e-05 6.0021e-25 2.61193e-05)
(2.82893e-05 -7.89767e-06 3.01529e-23 2.56139e-05 -7.35002e-25 2.69005e-05)
(2.95547e-05 -6.86824e-06 5.89345e-25 2.59102e-05 2.32331e-25 2.76827e-05)
(3.08278e-05 -5.81608e-06 -7.18348e-25 2.61961e-05 6.61907e-28 2.84645e-05)
(3.20859e-05 -4.7859e-06 1.05125e-24 2.64665e-05 3.68571e-25 2.9232e-05)
(3.33051e-05 -3.80659e-06 -5.53538e-23 2.67165e-05 -5.59441e-25 2.99706e-05)
(3.44584e-05 -2.89377e-06 5.89748e-23 2.69451e-05 -2.66976e-25 3.06657e-05)
(3.55168e-05 -2.05563e-06 -1.95012e-24 2.71558e-05 4.65734e-25 3.13045e-05)
(3.64531e-05 -1.29346e-06 1.78702e-24 2.73545e-05 -5.96098e-25 3.18752e-05)
(3.72373e-05 -6.03541e-07 7.54043e-23 2.75511e-05 2.41797e-24 3.23692e-05)
(3.78466e-05 9.82729e-09 -1.54702e-22 2.77529e-05 -2.66694e-24 3.27777e-05)
(3.82614e-05 5.45607e-07 7.8675e-23 2.79657e-05 -6.26692e-25 3.30934e-05)
(3.84661e-05 1.00601e-06 8.17495e-23 2.81928e-05 3.54509e-24 3.33111e-05)
(3.84534e-05 1.38428e-06 -8.30313e-23 2.8432e-05 -2.14889e-24 3.34263e-05)
(3.82249e-05 1.67848e-06 8.10654e-23 2.86755e-05 2.67036e-24 3.34345e-05)
(3.77853e-05 1.88657e-06 -8.03267e-23 2.89131e-05 -8.19187e-25 3.33348e-05)
(3.71489e-05 2.00707e-06 -8.60435e-23 2.91287e-05 -4.35808e-24 3.31254e-05)
(3.63349e-05 2.041e-06 4.28715e-23 2.93038e-05 2.07627e-26 3.28065e-05)
(3.53654e-05 1.99083e-06 3.84076e-23 2.94193e-05 2.09292e-24 3.238e-05)
(3.42648e-05 1.86377e-06 3.90685e-27 2.94561e-05 4.85664e-25 3.18487e-05)
(3.30615e-05 1.66777e-06 7.61113e-24 2.93955e-05 5.22525e-26 3.12164e-05)
(3.17784e-05 1.41733e-06 -6.90663e-24 2.92241e-05 -1.18101e-27 3.04896e-05)
(3.04399e-05 1.12597e-06 8.20092e-24 2.89313e-05 -4.67699e-25 2.96748e-05)
(2.90699e-05 8.08875e-07 4.74876e-23 2.85103e-05 2.20543e-24 2.8779e-05)
(2.76837e-05 4.83125e-07 -4.69433e-23 2.7962e-05 -6.37458e-25 2.78127e-05)
(2.62982e-05 1.65634e-07 -3.81885e-23 2.72906e-05 -2.58075e-24 2.67852e-05)
(2.49266e-05 -1.27826e-07 3.76126e-23 2.65049e-05 1.04787e-24 2.57069e-05)
(2.35767e-05 -3.85022e-07 4.17443e-24 2.56197e-05 -7.06423e-26 2.459e-05)
(2.22584e-05 -5.95303e-07 2.9783e-23 2.46505e-05 2.49726e-24 2.34456e-05)
(2.09719e-05 -7.49515e-07 -6.87149e-23 2.36196e-05 -2.58039e-24 2.22887e-05)
(1.9728e-05 -8.43515e-07 3.36184e-23 2.25442e-05 2.84406e-25 2.11289e-05)
(1.85276e-05 -8.77436e-07 -5.97222e-25 2.14466e-05 5.08671e-25 1.99805e-05)
(1.73741e-05 -8.5071e-07 2.37639e-24 2.03473e-05 4.33689e-25 1.88556e-05)
(1.62739e-05 -7.69145e-07 -2.45266e-23 1.92633e-05 -1.49556e-24 1.77644e-05)
(1.52316e-05 -6.40147e-07 2.55733e-23 1.82097e-05 4.88328e-25 1.67173e-05)
(1.42524e-05 -4.6795e-07 1.17342e-27 1.71994e-05 4.6807e-25 1.57227e-05)
(1.33396e-05 -2.62131e-07 1.90716e-24 1.62427e-05 3.34966e-25 1.47883e-05)
(1.24966e-05 -3.17328e-08 -9.35525e-24 1.53467e-05 -6.32221e-25 1.39197e-05)
(1.17271e-05 2.17191e-07 9.1126e-24 1.4515e-05 -1.99345e-25 1.31201e-05)
(1.10334e-05 4.78638e-07 1.34697e-23 1.37493e-05 9.10219e-25 1.23911e-05)
(1.04173e-05 7.47055e-07 -1.34425e-23 1.3049e-05 -7.01846e-26 1.17325e-05)
(9.87493e-06 1.01705e-06 8.50224e-25 1.24143e-05 6.5071e-26 1.11448e-05)
(9.40699e-06 1.28493e-06 -1.03781e-23 1.1842e-05 -5.82951e-25 1.0625e-05)
(9.00974e-06 1.54933e-06 9.60549e-24 1.13305e-05 -4.70423e-26 1.0171e-05)
(8.68003e-06 1.80669e-06 1.92468e-24 1.08777e-05 2.72217e-25 9.77986e-06)
(8.41317e-06 2.05377e-06 -1.56636e-24 1.04824e-05 3.81951e-25 9.44921e-06)
(8.20578e-06 2.28941e-06 -8.16568e-24 1.01428e-05 -5.63879e-25 9.17558e-06)
(8.05209e-06 2.50986e-06 1.04075e-23 9.85849e-06 7.62275e-26 8.95681e-06)
(7.94824e-06 2.71429e-06 -5.29448e-24 9.62724e-06 6.70413e-26 8.78932e-06)
(7.88915e-06 2.90024e-06 4.35379e-24 9.44715e-06 -3.39093e-25 8.6701e-06)
(7.87137e-06 3.06647e-06 3.00265e-24 9.31396e-06 4.36098e-25 8.59427e-06)
(7.88863e-06 3.21332e-06 -5.68907e-24 9.22371e-06 3.33521e-25 8.55786e-06)
(7.93707e-06 3.34084e-06 -2.37772e-24 9.1704e-06 -6.75256e-25 8.55533e-06)
(8.01179e-06 3.45145e-06 5.84023e-24 9.14813e-06 3.69353e-25 8.58148e-06)
(8.10867e-06 3.54886e-06 -5.37539e-24 9.15103e-06 1.96544e-25 8.63129e-06)
(8.22478e-06 3.63689e-06 6.47149e-25 9.17416e-06 -4.99836e-25 8.70066e-06)
(8.35765e-06 3.71994e-06 3.09349e-24 9.21443e-06 1.10819e-25 8.78712e-06)
(8.50642e-06 3.80369e-06 -7.2524e-25 9.27042e-06 1.14077e-25 8.88956e-06)
(8.67225e-06 3.89272e-06 -7.94714e-26 9.34244e-06 5.9132e-27 9.00831e-06)
(8.85612e-06 3.99266e-06 3.66522e-25 9.43298e-06 -6.82126e-27 9.14551e-06)
(9.06066e-06 4.10732e-06 -3.54663e-25 9.54522e-06 -7.31234e-26 9.30372e-06)
(9.28773e-06 4.23944e-06 1.48717e-25 9.68348e-06 7.80355e-26 9.48639e-06)
(9.53888e-06 4.3906e-06 -1.22284e-25 9.85069e-06 5.54859e-26 9.69543e-06)
(9.81275e-06 4.55973e-06 1.44699e-25 1.00478e-05 -1.34207e-25 9.9308e-06)
(1.01037e-05 4.74306e-06 5.68327e-26 1.02713e-05 5.41304e-27 1.0188e-05)
(1.03998e-05 4.93398e-06 1.13437e-25 1.05105e-05 1.4133e-25 1.04555e-05)
(1.06785e-05 5.12176e-06 -2.81625e-25 1.07437e-05 3.27551e-26 1.07114e-05)
(1.09019e-05 5.29106e-06 -1.03516e-25 1.09331e-05 -6.43659e-26 1.09178e-05)
(1.10052e-05 5.41878e-06 8.63659e-27 1.10139e-05 -4.90954e-26 1.10097e-05)
(1.0869e-05 5.46779e-06 3.86279e-26 1.08656e-05 -2.16763e-26 1.08674e-05)
(1.02299e-05 5.37034e-06 2.37516e-26 1.02232e-05 1.31816e-26 1.02265e-05)
(8.27135e-06 4.73954e-06 -7.59444e-27 8.26714e-06 7.65396e-27 8.26932e-06)
(1.15986e-06 1.68731e-07 2.28755e-28 1.1598e-06 2.4657e-29 1.15984e-06)
(2.963e-06 -6.12424e-07 4.89711e-25 3.07397e-06 -1.90809e-26 3.02027e-06)
(1.56823e-05 -9.213e-06 -1.6198e-23 1.73291e-05 5.27011e-25 1.65244e-05)
(1.94648e-05 -9.31192e-06 -7.01329e-26 2.10279e-05 -3.47131e-26 2.0253e-05)
(2.16231e-05 -9.24569e-06 8.31314e-23 2.27939e-05 -3.21523e-24 2.22328e-05)
(2.32678e-05 -8.99834e-06 -1.08648e-22 2.37833e-05 4.98109e-24 2.35597e-05)
(2.47306e-05 -8.52796e-06 3.12671e-25 2.4368e-05 -1.49111e-24 2.45858e-05)
(2.61432e-05 -7.85902e-06 1.9192e-22 2.47365e-05 -5.51443e-24 2.54767e-05)
(2.75531e-05 -7.04874e-06 -2.25436e-22 2.49976e-05 1.11474e-23 2.63119e-05)
(2.89671e-05 -6.16325e-06 -2.77696e-22 2.52088e-05 4.26593e-24 2.71233e-05)
(3.03718e-05 -5.2609e-06 3.12681e-22 2.53969e-05 -8.58648e-24 2.79176e-05)
(3.17451e-05 -4.38697e-06 -3.62717e-22 2.55719e-05 7.22988e-24 2.86889e-05)
(3.30628e-05 -3.57128e-06 4.03782e-22 2.57379e-05 -1.16241e-23 2.94275e-05)
(3.42995e-05 -2.82673e-06 -5.85834e-24 2.58973e-05 -5.95814e-25 3.01222e-05)
(3.54294e-05 -2.15715e-06 4.91874e-22 2.60536e-05 -1.04969e-25 3.07625e-05)
(3.64301e-05 -1.56257e-06 -5.13174e-22 2.621e-05 1.41461e-23 3.13376e-05)
(3.72763e-05 -1.03726e-06 -5.54263e-22 2.63727e-05 -9.35243e-24 3.18394e-05)
(3.79475e-05 -5.73904e-07 5.75859e-22 2.65466e-05 -5.97031e-24 3.22601e-05)
(3.84271e-05 -1.67633e-07 -5.33949e-24 2.6735e-05 5.54863e-24 3.2592e-05)
(3.86998e-05 1.84758e-07 4.09527e-25 2.69404e-05 5.45719e-29 3.283e-05)
(3.87583e-05 4.83647e-07 -7.05961e-25 2.71607e-05 -6.7749e-24 3.29686e-05)
(3.86008e-05 7.28415e-07 6.45278e-22 2.73902e-05 1.82329e-23 3.3004e-05)
(3.82323e-05 9.16663e-07 -6.49137e-22 2.76189e-05 -4.45507e-24 3.29328e-05)
(3.7661e-05 1.04554e-06 9.25763e-24 2.78349e-05 -7.00502e-24 3.27547e-05)
(3.69041e-05 1.11321e-06 -1.09393e-23 2.80211e-05 -7.68484e-24 3.24686e-05)
(3.5981e-05 1.11616e-06 6.56794e-22 2.816e-05 1.85122e-23 3.2076e-05)
(3.49148e-05 1.05751e-06 4.71279e-24 2.8233e-05 1.67875e-23 3.15796e-05)
(3.37302e-05 9.43268e-07 -6.34245e-22 2.82227e-05 -2.74927e-23 3.09831e-05)
(3.24564e-05 7.7819e-07 6.12852e-22 2.81115e-05 2.14889e-23 3.02899e-05)
(3.11154e-05 5.7436e-07 -6.01304e-22 2.78887e-05 -4.8718e-24 2.95077e-05)
(2.97287e-05 3.41642e-07 -6.35296e-22 2.75471e-05 -3.72109e-23 2.86446e-05)
(2.83199e-05 9.53751e-08 6.04344e-22 2.70818e-05 1.30552e-23 2.77077e-05)
(2.6906e-05 -1.4872e-07 -2.5827e-24 2.64951e-05 7.63915e-24 2.67067e-05)
(2.55003e-05 -3.79088e-07 6.3327e-25 2.57944e-05 4.10113e-24 2.56529e-05)
(2.41127e-05 -5.82181e-07 -2.84203e-22 2.4992e-05 -1.78006e-23 2.45583e-05)
(2.27545e-05 -7.48186e-07 5.47896e-22 2.41018e-05 1.44646e-23 2.34338e-05)
(2.14322e-05 -8.65566e-07 8.90331e-25 2.31417e-05 7.39868e-24 2.22921e-05)
(2.01514e-05 -9.30974e-07 6.28726e-24 2.21318e-05 -6.48189e-26 2.11459e-05)
(1.89164e-05 -9.44222e-07 1.57905e-24 2.10921e-05 4.03617e-24 2.00079e-05)
(1.77316e-05 -9.01604e-07 -2.37375e-22 2.00427e-05 -3.29239e-24 1.88907e-05)
(1.66021e-05 -8.07576e-07 -2.50776e-22 1.90015e-05 -1.50434e-23 1.78052e-05)
(1.55324e-05 -6.67689e-07 2.45914e-22 1.79848e-05 2.8331e-24 1.67621e-05)
(1.4529e-05 -4.8983e-07 -8.62126e-24 1.70049e-05 4.08152e-24 1.57691e-05)
(1.35937e-05 -2.80893e-07 -5.24797e-24 1.60738e-05 4.4563e-24 1.48353e-05)
(1.27299e-05 -4.71176e-08 -2.34827e-22 1.51993e-05 -1.01475e-23 1.39662e-05)
(1.19434e-05 2.04724e-07 2.34615e-22 1.43845e-05 1.02059e-24 1.31641e-05)
(1.12326e-05 4.68734e-07 -1.02496e-23 1.36337e-05 4.26679e-24 1.24327e-05)
(1.05982e-05 7.37804e-07 7.24164e-24 1.29472e-05 -6.72405e-27 1.17724e-05)
(1.00398e-05 1.00842e-06 -1.13644e-23 1.2324e-05 2.47058e-24 1.11822e-05)
(9.557e-06 1.2785e-06 -9.13507e-23 1.17617e-05 -4.5003e-24 1.06595e-05)
(9.14692e-06 1.54352e-06 8.35892e-23 1.12584e-05 2.18882e-24 1.02018e-05)
(8.80355e-06 1.80091e-06 -8.38713e-23 1.08136e-05 -1.99769e-24 9.80785e-06)
(8.52423e-06 2.0495e-06 8.52617e-23 1.0425e-05 2.0676e-24 9.47396e-06)
(8.30475e-06 2.28525e-06 -8.28053e-23 1.00913e-05 1.23361e-24 9.19718e-06)
(8.14013e-06 2.50578e-06 9.36764e-26 9.81151e-06 -2.54222e-24 8.97496e-06)
(8.02652e-06 2.70946e-06 -3.27969e-24 9.58377e-06 8.90935e-26 8.80391e-06)
(7.95796e-06 2.89504e-06 8.23228e-26 9.40631e-06 -1.59602e-24 8.68113e-06)
(7.93123e-06 3.06147e-06 3.69724e-23 9.27504e-06 -2.94701e-24 8.60193e-06)
(7.94059e-06 3.20792e-06 5.99543e-23 9.18599e-06 3.89859e-24 8.56222e-06)
(7.98199e-06 3.33486e-06 -2.82317e-23 9.13331e-06 7.46911e-25 8.5565e-06)
(8.05026e-06 3.4457e-06 2.65807e-23 9.11158e-06 6.56773e-25 8.57996e-06)
(8.14209e-06 3.54394e-06 -2.53366e-23 9.11489e-06 -6.51644e-25 8.62742e-06)
(8.2536e-06 3.63218e-06 2.49978e-23 9.13901e-06 2.56115e-24 8.69539e-06)
(8.38336e-06 3.71577e-06 -4.55448e-23 9.18071e-06 -8.39222e-25 8.78113e-06)
(8.53028e-06 3.80079e-06 2.22322e-23 9.2389e-06 -3.09484e-24 8.88382e-06)
(8.69529e-06 3.89217e-06 -1.41743e-24 9.31415e-06 2.72774e-24 9.00395e-06)
(8.87964e-06 3.99476e-06 -7.93467e-24 9.40894e-06 -1.16601e-24 9.14362e-06)
(9.08572e-06 4.1122e-06 6.92603e-24 9.52679e-06 -1.89018e-24 9.30569e-06)
(9.31566e-06 4.24799e-06 8.07223e-24 9.6716e-06 2.11607e-24 9.49314e-06)
(9.57051e-06 4.40293e-06 -6.9395e-24 9.84646e-06 1.4065e-24 9.70803e-06)
(9.84867e-06 4.57524e-06 -3.00836e-24 1.00519e-05 -2.14427e-24 9.94985e-06)
(1.01443e-05 4.76203e-06 5.46912e-24 1.02839e-05 2.22893e-25 1.02137e-05)
(1.04445e-05 4.95538e-06 -2.47159e-24 1.05311e-05 8.97096e-25 1.04874e-05)
(1.0726e-05 5.14488e-06 -2.60961e-26 1.07711e-05 -4.719e-25 1.07483e-05)
(1.09503e-05 5.31482e-06 -6.32346e-27 1.09655e-05 -1.79755e-27 1.09577e-05)
(1.10519e-05 5.44148e-06 -3.83694e-31 1.10486e-05 -5.11285e-35 1.10501e-05)
(1.09113e-05 5.48782e-06 4.80323e-26 1.08998e-05 1.3433e-27 1.09054e-05)
(1.02648e-05 5.38632e-06 -3.74611e-26 1.02537e-05 -9.17748e-26 1.0259e-05)
(8.29574e-06 4.75092e-06 3.92357e-26 8.29017e-06 7.91114e-26 8.29289e-06)
(1.16497e-06 1.69495e-07 -9.65736e-28 1.16493e-06 -6.1612e-28 1.16495e-06)
(2.68861e-06 -5.28836e-07 -1.80786e-27 2.88447e-06 -1.10463e-26 2.78732e-06)
(1.42928e-05 -8.74242e-06 3.02072e-26 1.70562e-05 1.56253e-25 1.56618e-05)
(1.81885e-05 -8.86083e-06 9.51394e-23 2.03578e-05 -7.56457e-24 1.92235e-05)
(2.05282e-05 -8.66771e-06 -1.37038e-22 2.18535e-05 1.08748e-23 2.11679e-05)
(2.23665e-05 -8.35701e-06 2.1465e-22 2.27257e-05 -1.52341e-23 2.2535e-05)
(2.40295e-05 -7.91133e-06 -2.67719e-22 2.3263e-05 2.42423e-23 2.3635e-05)
(2.56405e-05 -7.34065e-06 -3.53047e-22 2.35931e-05 2.13677e-23 2.46054e-05)
(2.72363e-05 -6.67265e-06 -1.43961e-23 2.38026e-05 -8.40587e-24 2.5509e-05)
(2.88147e-05 -5.9467e-06 4.954e-22 2.39503e-05 -3.5307e-23 2.63734e-05)
(3.03571e-05 -5.20593e-06 5.92067e-22 2.40725e-05 -1.91144e-23 2.72069e-05)
(3.18392e-05 -4.48527e-06 -6.59722e-22 2.41901e-05 4.56653e-23 2.8008e-05)
(3.32365e-05 -3.81149e-06 -7.58096e-22 2.43149e-05 7.65433e-24 2.87702e-05)
(3.45265e-05 -3.20114e-06 1.64475e-21 2.44529e-05 -5.09551e-23 2.94853e-05)
(3.56893e-05 -2.65686e-06 -1.77712e-21 2.46065e-05 7.32456e-23 3.01443e-05)
(3.67065e-05 -2.17812e-06 -2.43023e-23 2.47773e-05 -3.37954e-23 3.07392e-05)
(3.75621e-05 -1.75985e-06 1.0244e-21 2.49653e-05 -1.29565e-23 3.12615e-05)
(3.82416e-05 -1.39197e-06 -1.08865e-21 2.51707e-05 1.37713e-23 3.17043e-05)
(3.87321e-05 -1.07013e-06 1.1385e-21 2.53928e-05 -2.678e-23 3.20609e-05)
(3.90236e-05 -7.85341e-07 -2.70135e-23 2.563e-05 1.23105e-23 3.23254e-05)
(3.91103e-05 -5.34068e-07 1.3809e-23 2.58786e-05 4.75413e-28 3.24928e-05)
(3.89891e-05 -3.14935e-07 5.21789e-24 2.6133e-05 -1.67261e-26 3.25589e-05)
(3.86616e-05 -1.31586e-07 -2.85348e-24 2.63855e-05 1.46119e-23 3.25215e-05)
(3.8137e-05 1.32238e-08 -1.236e-21 2.6624e-05 -2.99358e-23 3.23776e-05)
(3.74253e-05 1.17662e-07 1.22879e-21 2.68361e-05 3.89487e-25 3.21278e-05)
(3.65433e-05 1.75413e-07 -1.47595e-23 2.7006e-05 1.47487e-23 3.17725e-05)
(3.55139e-05 1.85524e-07 5.10563e-23 2.71159e-05 1.57587e-23 3.13126e-05)
(3.43583e-05 1.50417e-07 -1.30767e-21 2.715e-05 -6.02816e-23 3.0752e-05)
(3.3101e-05 7.33708e-08 2.50738e-21 2.70931e-05 7.54825e-23 3.00953e-05)
(3.17668e-05 -4.49698e-08 -2.41871e-21 2.69321e-05 -4.72787e-23 2.93479e-05)
(3.03785e-05 -1.91626e-07 1.15832e-21 2.66581e-05 5.47478e-25 2.85171e-05)
(2.89593e-05 -3.54452e-07 8.3159e-24 2.62652e-05 1.52199e-23 2.76101e-05)
(2.75244e-05 -5.24244e-07 -1.2769e-23 2.57552e-05 6.74355e-26 2.66381e-05)
(2.60922e-05 -6.88854e-07 1.48921e-23 2.51318e-05 3.48983e-26 2.56104e-05)
(2.46757e-05 -8.34724e-07 -1.9786e-23 2.44039e-05 -1.0005e-25 2.4538e-05)
(2.32835e-05 -9.50552e-07 3.00867e-23 2.35862e-05 2.47223e-25 2.34339e-05)
(2.19282e-05 -1.02775e-06 -4.05918e-24 2.26927e-05 4.58799e-26 2.23083e-05)
(2.06103e-05 -1.06093e-06 -3.84849e-24 2.17451e-05 -1.81165e-25 2.11772e-05)
(1.93416e-05 -1.048e-06 5.27771e-25 2.07602e-05 8.31559e-24 2.00503e-05)
(1.81253e-05 -9.85636e-07 -4.99218e-22 1.9758e-05 -2.114e-23 1.89407e-05)
(1.69654e-05 -8.77183e-07 4.6831e-22 1.87578e-05 1.30638e-23 1.78608e-05)
(1.58681e-05 -7.26695e-07 -4.67107e-22 1.77752e-05 -1.22802e-23 1.68205e-05)
(1.48347e-05 -5.38672e-07 4.68609e-22 1.6826e-05 3.0228e-24 1.58307e-05)
(1.38748e-05 -3.22588e-07 -3.12707e-23 1.59189e-05 -1.00989e-24 1.48965e-05)
(1.29877e-05 -8.24663e-08 4.54108e-22 1.50644e-05 2.77964e-23 1.40261e-05)
(1.2178e-05 1.74164e-07 -8.28763e-22 1.4267e-05 -1.90537e-23 1.32223e-05)
(1.14463e-05 4.39977e-07 4.06484e-22 1.35305e-05 1.52638e-24 1.24882e-05)
(1.07922e-05 7.12339e-07 -4.0888e-22 1.28561e-05 -9.11803e-24 1.18247e-05)
(1.02164e-05 9.86894e-07 3.88554e-22 1.22429e-05 3.88155e-24 1.12304e-05)
(9.71708e-06 1.26002e-06 -2.04356e-22 1.16892e-05 -4.86783e-24 1.07034e-05)
(9.28984e-06 1.5273e-06 3.89763e-22 1.11943e-05 7.10255e-24 1.02423e-05)
(8.93155e-06 1.78627e-06 -1.98488e-22 1.07562e-05 6.46801e-24 9.8442e-06)
(8.63857e-06 2.03582e-06 1.05804e-23 1.03734e-05 -4.89959e-24 9.50603e-06)
(8.40522e-06 2.27323e-06 -1.01718e-24 1.00449e-05 1.8751e-26 9.22545e-06)
(8.22815e-06 2.49523e-06 -8.41853e-24 9.76926e-06 -6.15282e-24 8.99919e-06)
(8.10268e-06 2.70007e-06 1.50939e-22 9.54466e-06 1.78741e-24 8.82406e-06)
(8.02421e-06 2.88629e-06 -3.23193e-25 9.36909e-06 1.16942e-23 8.6969e-06)
(7.98803e-06 3.05276e-06 -1.26458e-22 9.23905e-06 -1.55252e-24 8.61351e-06)
(7.98864e-06 3.1996e-06 1.86949e-24 9.15077e-06 -5.52144e-24 8.56998e-06)
(8.02242e-06 3.32711e-06 -1.3771e-24 9.09846e-06 -5.24452e-27 8.56072e-06)
(8.08478e-06 3.43818e-06 9.27802e-25 9.07655e-06 -5.08033e-26 8.58067e-06)
(8.17083e-06 3.53641e-06 2.9258e-24 9.08035e-06 3.72261e-24 8.62581e-06)
(8.27806e-06 3.62577e-06 -5.14782e-23 9.10515e-06 -4.26574e-24 8.69199e-06)
(8.40474e-06 3.71111e-06 4.54521e-23 9.14809e-06 1.20981e-24 8.77677e-06)
(8.55013e-06 3.79811e-06 -3.93004e-23 9.20825e-06 -1.14542e-24 8.87942e-06)
(8.71444e-06 3.89138e-06 3.8049e-23 9.2866e-06 -8.51015e-25 9.00076e-06)
(8.89964e-06 3.9963e-06 -1.63799e-23 9.38547e-06 -1.03411e-24 9.14269e-06)
(9.10761e-06 4.1172e-06 3.12025e-23 9.50879e-06 7.66414e-25 9.3084e-06)
(9.34069e-06 4.25637e-06 -1.45708e-23 9.66014e-06 3.34236e-24 9.50057e-06)
(9.59951e-06 4.41495e-06 -2.68295e-25 9.84264e-06 -1.77336e-24 9.72125e-06)
(9.88236e-06 4.5914e-06 3.62613e-25 1.00565e-05 6.57431e-27 9.96958e-06)
(1.01829e-05 4.78127e-06 -2.48946e-25 1.0297e-05 -1.1826e-26 1.024e-05)
(1.04874e-05 4.9771e-06 -1.12515e-25 1.05524e-05 -4.43171e-27 1.052e-05)
(1.07722e-05 5.16827e-06 1.62769e-26 1.07994e-05 8.68771e-27 1.07858e-05)
(1.09977e-05 5.33855e-06 -2.26837e-25 1.09988e-05 3.18931e-27 1.09983e-05)
(1.10982e-05 5.46406e-06 1.96576e-25 1.10846e-05 3.12741e-25 1.10914e-05)
(1.09537e-05 5.50772e-06 -4.55134e-25 1.09355e-05 -3.48483e-25 1.09446e-05)
(1.03008e-05 5.4023e-06 4.16701e-25 1.02862e-05 1.80109e-26 1.02933e-05)
(8.32324e-06 4.76431e-06 -6.9044e-26 8.31664e-06 -2.81187e-26 8.31992e-06)
(1.17166e-06 1.70766e-07 4.28749e-29 1.17163e-06 1.16732e-27 1.17165e-06)
(2.36484e-06 -4.02913e-07 -1.17829e-25 2.6225e-06 -2.31644e-29 2.49462e-06)
(1.2534e-05 -7.86988e-06 -1.02716e-25 1.65671e-05 -2.03168e-29 1.45569e-05)
(1.66667e-05 -8.47434e-06 2.70107e-25 1.97154e-05 2.5132e-24 1.81433e-05)
(1.93034e-05 -8.4089e-06 -2.61573e-22 2.09322e-05 3.39258e-23 2.01001e-05)
(2.1402e-05 -8.16596e-06 -2.94357e-23 2.15976e-05 -9.01281e-24 2.15006e-05)
(2.32901e-05 -7.80356e-06 4.67221e-22 2.20125e-05 -5.57957e-23 2.26528e-05)
(2.50989e-05 -7.35656e-06 6.24135e-24 2.22701e-05 6.62597e-24 2.3685e-05)
(2.68687e-05 -6.8462e-06 -6.27328e-24 2.24293e-05 -8.0419e-27 2.46497e-05)
(2.85983e-05 -6.29306e-06 1.01415e-24 2.25358e-05 -4.11006e-27 2.55679e-05)
(3.02688e-05 -5.72023e-06 1.50763e-24 2.26226e-05 2.77037e-27 2.64464e-05)
(3.18542e-05 -5.1532e-06 -4.27607e-24 2.27141e-05 -1.48573e-23 2.72847e-05)
(3.33298e-05 -4.61136e-06 1.36071e-21 2.2826e-05 -8.53163e-23 2.80786e-05)
(3.46746e-05 -4.10773e-06 1.84654e-23 2.29668e-05 4.4832e-23 2.88214e-05)
(3.58715e-05 -3.64991e-06 -1.62857e-21 2.31399e-05 7.0598e-23 2.95063e-05)
(3.69071e-05 -3.23988e-06 1.77982e-21 2.33444e-05 -7.40135e-23 3.01263e-05)
(3.77712e-05 -2.87437e-06 -1.86557e-21 2.35772e-05 7.83563e-23 3.06746e-05)
(3.84538e-05 -2.54778e-06 2.00999e-21 2.38345e-05 -3.46681e-23 3.1145e-05)