/*--------------------------------*- C++ -*----------------------------------*\
  =========                 |
  \\      /  F ield         | OpenFOAM: The Open Source CFD Toolbox
   \\    /   O peration     | Website:  https://openfoam.org
    \\  /    A nd           | Version:  7
     \\/     M anipulation  |
\*---------------------------------------------------------------------------*/
FoamFile
{
    version     2.0;
    format      ascii;
    class       volVectorField;
    location    "20000";
    object      U;
}
// * * * * * * * * * * * * * * * * * * * * * * * * * * * * * * * * * * * * * //

dimensions      [0 1 -1 0 0 0 0];

internalField   nonuniform List<vector> 
10981
(
(0.0064116 -1.71804e-05 0)
(0.0126891 -1.82934e-05 0)
(0.0161433 2.68707e-05 0)
(0.0186185 0.000104307 0)
(0.0204771 0.000206552 0)
(0.0218734 0.000320078 0)
(0.0229222 0.000435238 0)
(0.0237176 0.000547175 0)
(0.0243325 0.00065411 0)
(0.0248195 0.000755835 0)
(0.0252153 0.000852775 0)
(0.0255451 0.000945474 0)
(0.0258262 0.00103436 0)
(0.0260707 0.00111964 0)
(0.026287 0.00120126 0)
(0.0264815 0.00127898 0)
(0.0266587 0.00135231 0)
(0.0268222 0.00142066 0)
(0.026975 0.00148334 0)
(0.0271196 0.0015396 0)
(0.0272581 0.00158875 0)
(0.0273925 0.00163014 0)
(0.0275246 0.00166326 0)
(0.027656 0.00168772 0)
(0.0277883 0.00170332 0)
(0.0279229 0.00171005 0)
(0.0280611 0.00170808 0)
(0.0282037 0.00169778 0)
(0.0283517 0.00167968 0)
(0.0285056 0.00165444 0)
(0.0286655 0.00162286 0)
(0.0288312 0.00158579 0)
(0.0290021 0.00154414 0)
(0.0291771 0.0014988 0)
(0.0293548 0.00145062 0)
(0.0295333 0.00140038 0)
(0.0297102 0.00134878 0)
(0.0298831 0.00129637 0)
(0.0300491 0.00124363 0)
(0.0302055 0.00119089 0)
(0.0303495 0.0011384 0)
(0.0304787 0.00108635 0)
(0.0305907 0.00103484 0)
(0.0306838 0.000983968 0)
(0.0307563 0.000933803 0)
(0.0308072 0.000884408 0)
(0.0308353 0.000835841 0)
(0.03084 0.000788161 0)
(0.0308205 0.000741423 0)
(0.0307758 0.000695672 0)
(0.0307051 0.000650942 0)
(0.0306071 0.000607252 0)
(0.0304805 0.000564605 0)
(0.0303241 0.000522991 0)
(0.0301365 0.000482396 0)
(0.0299167 0.000442802 0)
(0.0296641 0.000404209 0)
(0.0293786 0.000366635 0)
(0.0290605 0.00033013 0)
(0.0287106 0.000294775 0)
(0.0283296 0.000260689 0)
(0.0279178 0.000228016 0)
(0.0274749 0.000196924 0)
(0.0269993 0.000167597 0)
(0.0264882 0.000140226 0)
(0.0259369 0.000114999 0)
(0.0253387 9.2099e-05 0)
(0.0246851 7.16877e-05 0)
(0.0239652 5.38969e-05 0)
(0.0231656 3.88105e-05 0)
(0.0222705 2.64462e-05 0)
(0.0212609 1.67375e-05 0)
(0.0201129 9.52178e-06 0)
(0.0187952 4.54078e-06 0)
(0.017261 1.45742e-06 0)
(0.015432 -1.22015e-07 0)
(0.0131523 -6.3921e-07 0)
(0.0100186 -5.97042e-07 0)
(0.00458052 -1.23261e-07 0)
(0.00657376 -2.58396e-05 1.13054e-26)
(0.0126989 -6.41041e-05 1.33e-26)
(0.0159671 -7.46541e-05 0)
(0.018298 -6.12843e-05 0)
(0.0200793 -2.13832e-05 0)
(0.0214552 3.76591e-05 -6.93416e-27)
(0.0225183 0.000107975 1.3959e-26)
(0.0233441 0.000184183 0)
(0.0239932 0.000263208 0)
(0.0245129 0.000343557 0)
(0.0249377 0.000424617 1.60583e-26)
(0.0252929 0.00050618 0)
(0.0255965 0.000588132 0)
(0.0258612 0.000670291 -3.73098e-26)
(0.0260965 0.000752316 3.92864e-26)
(0.0263089 0.000833681 0)
(0.0265036 0.000913673 0)
(0.0266845 0.000991419 0)
(0.0268544 0.00106594 -9.55956e-26)
(0.0270158 0.00113618 9.99488e-26)
(0.0271709 0.00120111 0)
(0.0273213 0.00125973 -2.17134e-25)
(0.0274687 0.00131116 0)
(0.0276146 0.00135468 2.33993e-25)
(0.0277603 0.00138975 -2.42299e-25)
(0.0279072 0.00141604 -2.50571e-25)
(0.0280564 0.00143344 0)
(0.0282088 0.00144209 0)
(0.0283652 0.0014423 0)
(0.0285262 0.00143459 0)
(0.028692 0.00141961 5.87521e-25)
(0.0288624 0.00139816 0)
(0.029037 0.00137106 -6.26917e-25)
(0.0292148 0.00133922 0)
(0.0293946 0.00130348 -6.71114e-25)
(0.0295744 0.00126466 0)
(0.0297522 0.00122351 -7.21249e-25)
(0.0299256 0.00118065 7.48853e-25)
(0.0300919 0.00113661 0)
(0.0302484 0.00109182 0)
(0.0303925 0.00104659 0)
(0.0305217 0.00100118 0)
(0.0306339 0.000955753 0)
(0.0307271 0.000910473 0)
(0.0307999 0.000865455 0)
(0.030851 0.000820807 0)
(0.0308796 0.000776631 1.11647e-24)
(0.0308847 0.000733018 0)
(0.0308657 0.000690055 1.25402e-24)
(0.0308216 0.000647815 0)
(0.0307516 0.000606356 1.43125e-24)
(0.0306544 0.000565718 0)
(0.0305288 0.000525926 8.29286e-25)
(0.0303734 0.000486987 0)
(0.030187 0.000448902 9.71163e-25)
(0.0299685 0.000411671 0)
(0.0297174 0.000375306 0)
(0.0294333 0.000339839 -1.23638e-24)
(0.0291167 0.000305331 0)
(0.0287683 0.000271875 -7.22847e-25)
(0.0283885 0.000239598 -7.80194e-25)
(0.0279777 0.000208655 0)
(0.0275354 0.000179221 0)
(0.0270599 0.000151488 0)
(0.0265483 0.000125653 0)
(0.0259956 0.000101914 0)
(0.0253953 8.04553e-05 0)
(0.0247385 6.14447e-05 -6.69972e-25)
(0.0240143 4.50137e-05 0)
(0.0232095 3.12426e-05 3.97665e-25)
(0.0223082 2.01407e-05 0)
(0.0212916 1.16284e-05 4.79061e-25)
(0.0201364 5.52641e-06 5.30689e-25)
(0.0188114 1.55951e-06 -2.97169e-25)
(0.0172705 -6.24846e-07 0)
(0.0154358 -1.43594e-06 0)
(0.0131519 -1.33677e-06 0)
(0.0100161 -8.48656e-07 0)
(0.0045785 -1.30026e-07 0)
(0.00703411 -7.27352e-05 -1.04694e-22)
(0.0131115 -0.00016782 1.62201e-28)
(0.0162028 -0.000232985 0)
(0.0183604 -0.000274072 0)
(0.0200093 -0.000286616 0)
(0.0213 -0.000274607 3.46143e-23)
(0.0223159 -0.000243745 -6.39143e-23)
(0.0231194 -0.000198941 2.97256e-23)
(0.023761 -0.000143781 0)
(0.0242808 -8.06975e-05 -6.85873e-26)
(0.0247099 -1.12757e-05 5.57466e-26)
(0.0250715 6.34092e-05 -3.99971e-23)
(0.0253828 0.000142519 3.63894e-23)
(0.0256564 0.000225286 -1.27294e-25)
(0.0259017 0.000310905 -3.99916e-26)
(0.0261254 0.000398467 4.70289e-23)
(0.0263324 0.000486943 -9.31682e-23)
(0.0265267 0.000575189 4.62767e-23)
(0.026711 0.000661974 5.30928e-23)
(0.0268875 0.000746017 -5.06234e-23)
(0.0270581 0.000826043 5.74403e-23)
(0.0272242 0.000900829 -5.45298e-23)
(0.0273872 0.000969256 -6.09413e-23)
(0.0275482 0.00103036 2.77203e-23)
(0.0277084 0.00108337 3.17254e-23)
(0.0278688 0.00112772 2.53061e-25)
(0.0280304 0.00116309 1.049e-24)
(0.0281941 0.0011894 0)
(0.0283605 0.0012068 1.11114e-24)
(0.0285302 0.00121564 3.7372e-23)
(0.0287034 0.00121647 -3.75636e-23)
(0.0288801 0.00120997 -3.96224e-23)
(0.0290598 0.00119693 4.01072e-23)
(0.0292417 0.0011782 0)
(0.0294246 0.00115462 4.69009e-23)
(0.0296069 0.00112704 -8.88894e-23)
(0.0297865 0.00109621 4.62196e-23)
(0.0299612 0.00106283 -7.49904e-25)
(0.0301285 0.00102749 -3.09603e-24)
(0.0302857 0.000990651 -4.89418e-23)
(0.0304304 0.000952716 5.33147e-23)
(0.0305602 0.000913991 0)
(0.0306728 0.00087472 3.64945e-24)
(0.0307665 0.000835103 -3.08288e-23)
(0.0308398 0.00079531 3.18964e-23)
(0.0308915 0.000755493 3.39072e-23)
(0.0309206 0.000715791 -3.64671e-23)
(0.0309263 0.000676331 2.34161e-24)
(0.0309079 0.000637228 -4.12896e-23)
(0.0308646 0.000598584 4.23357e-23)
(0.0307953 0.000560479 -1.42542e-24)
(0.030699 0.000522976 3.04403e-24)
(0.0305744 0.000486119 -5.36009e-23)
(0.0304201 0.000449933 6.0297e-23)
(0.030235 0.000414434 -3.5663e-23)
(0.0300178 0.000379639 3.33114e-23)
(0.0297681 0.000345573 3.62256e-23)
(0.0294855 0.000312281 -3.78894e-23)
(0.0291704 0.000279835 -3.97898e-23)
(0.0288233 0.000248342 9.23028e-23)
(0.0284448 0.000217936 -9.80715e-23)
(0.0280349 0.000188782 2.65853e-23)
(0.0275931 0.000161066 2.87082e-23)
(0.0271176 0.000134987 1.93083e-24)
(0.0266052 0.000110748 -2.08368e-24)
(0.0260511 8.85517e-05 0)
(0.0254483 6.85883e-05 0)
(0.0247881 5.10252e-05 2.1888e-23)
(0.0240594 3.59926e-05 -2.30704e-23)
(0.023249 2.35649e-05 -3.94453e-25)
(0.0223412 1.37416e-05 2.75484e-23)
(0.0213175 6.42981e-06 -4.67696e-25)
(0.0201548 1.43616e-06 -3.50849e-23)
(0.0188226 -1.52777e-06 -1.84596e-23)
(0.0172751 -2.82684e-06 -1.22296e-27)
(0.015435 -2.8799e-06 1.25741e-23)
(0.0131474 -2.16612e-06 1.67582e-23)
(0.0100102 -1.2211e-06 0)
(0.00457448 -1.78869e-07 2.01645e-24)
(0.00713122 -0.000313518 -1.63378e-22)
(0.0133086 -0.000576973 9.69217e-23)
(0.0163434 -0.000708697 5.04582e-27)
(0.0183939 -0.000779622 1.23818e-22)
(0.0199388 -0.000810247 -9.87279e-23)
(0.0211489 -0.000809865 0)
(0.0221108 -0.000784573 2.44731e-22)
(0.022882 -0.000739632 -2.09641e-22)
(0.0235065 -0.000679533 -2.94455e-22)
(0.0240191 -0.000607822 2.59079e-22)
(0.0244471 -0.000527151 -3.30728e-22)
(0.0248117 -0.000439483 2.98022e-22)
(0.0251289 -0.000346317 0)
(0.0254106 -0.000248876 3.75363e-22)
(0.0256657 -0.000148252 -3.48025e-22)
(0.0259009 -4.54987e-05 -4.03634e-22)
(0.026121 5.83048e-05 3.78657e-22)
(0.0263296 0.000162027 0)
(0.0265293 0.000264477 0)
(0.0267221 0.000364423 0)
(0.0269095 0.000460619 4.71785e-22)
(0.0270927 0.000551848 -4.53256e-22)
(0.0272727 0.000636966 0)
(0.0274504 0.000714948 -4.82083e-25)
(0.0276266 0.000784931 5.23708e-22)
(0.0278023 0.000846245 2.8107e-23)
(0.0279781 0.000898442 -5.26966e-22)
(0.0281548 0.000941303 5.64965e-22)
(0.028333 0.000974846 -5.57931e-22)
(0.0285131 0.000999305 -5.97281e-22)
(0.0286955 0.00101511 5.90496e-22)
(0.02888 0.00102287 -2.42164e-24)
(0.0290663 0.00102329 0)
(0.0292537 0.00101719 -3.34766e-22)
(0.0294411 0.00100539 6.75874e-22)
(0.0296271 0.000988744 9.40573e-24)
(0.0298096 0.000968028 1.47089e-23)
(0.0299867 0.000943968 8.63887e-24)
(0.030156 0.000917194 -3.85846e-22)
(0.0303149 0.000888244 -4.09437e-22)
(0.030461 0.000857563 4.21599e-22)
(0.0305919 0.000825515 0)
(0.0307057 0.000792399 -1.08413e-23)
(0.0308005 0.000758465 -4.94778e-22)
(0.0308749 0.000723929 5.0396e-22)
(0.0309276 0.000688982 -4.15043e-24)
(0.0309577 0.0006538 -4.37224e-24)
(0.0309645 0.000618542 -6.94542e-24)
(0.0309472 0.000583353 -3.11017e-22)
(0.0309049 0.000548359 3.28656e-22)
(0.0308368 0.000513665 -3.54035e-22)
(0.0307417 0.000479354 3.80654e-22)
(0.0306183 0.000445489 -4.22142e-22)
(0.0304654 0.000412112 -5.62667e-24)
(0.0302817 0.000379257 1.7727e-24)
(0.0300662 0.000346954 -6.02326e-24)
(0.0298181 0.000315242 2.87592e-22)
(0.0295372 0.000284179 6.1628e-22)
(0.0292237 0.000253848 -3.30377e-22)
(0.0288782 0.000224366 3.60617e-22)
(0.0285009 0.000195879 -3.88481e-22)
(0.0280919 0.00016856 4.1972e-22)
(0.0276506 0.000142605 -9.04393e-22)
(0.0271751 0.00011822 4.85499e-22)
(0.026662 9.56185e-05 2.06208e-24)
(0.0261063 7.50086e-05 -2.80172e-22)
(0.025501 5.65871e-05 3.07914e-22)
(0.0248373 4.0525e-05 3.34304e-22)
(0.0241039 2.69527e-05 -3.63371e-22)
(0.0232878 1.59405e-05 -1.98197e-22)
(0.0223735 7.4782e-06 4.33549e-22)
(0.0213425 1.45896e-06 -2.40019e-22)
(0.0201725 -2.32817e-06 -1.02073e-24)
(0.018833 -4.19208e-06 0)
(0.0172791 -4.5211e-06 0)
(0.0154339 -3.76137e-06 0)
(0.0131432 -2.42943e-06 -9.70105e-25)
(0.0100055 -1.09512e-06 8.94419e-23)
(0.00457233 5.464e-08 -1.32761e-22)
(0.00658541 -0.000624236 3.79637e-22)
(0.0128293 -0.00113225 0)
(0.0159347 -0.00134828 2.394e-22)
(0.0179933 -0.00144445 -1.78405e-22)
(0.0195216 -0.00147804 4.65425e-22)
(0.0207136 -0.00147087 -3.84114e-22)
(0.021666 -0.00143279 -6.09397e-22)
(0.0224383 -0.00137065 -1.38081e-22)
(0.0230723 -0.00129007 5.75914e-22)
(0.0236001 -0.00119567 7.37822e-22)
(0.0240466 -0.00109106 -6.58139e-22)
(0.0244312 -0.000979031 -7.92848e-22)
(0.024769 -0.000861742 1.5394e-21)
(0.0250716 -0.000740874 -1.58945e-21)
(0.0253475 -0.000617797 -8.3868e-23)
(0.0256035 -0.000493692 8.02965e-22)
(0.0258443 -0.000369642 -9.0269e-22)
(0.0260736 -0.00024669 8.50151e-22)
(0.0262941 -0.000125883 0)
(0.0265076 -8.28151e-06 -9.33757e-25)
(0.0267156 0.000105041 9.51788e-25)
(0.026919 0.00021302 0)
(0.0271189 0.000314628 -1.02622e-21)
(0.0273158 0.000408918 9.88494e-22)
(0.0275105 0.000495055 1.00955e-24)
(0.0277036 0.000572363 2.09821e-24)
(0.0278958 0.000640348 -1.11304e-21)
(0.0280875 0.000698724 2.23219e-21)
(0.0282793 0.000747421 -2.28374e-21)
(0.0284718 0.000786582 1.1452e-21)
(0.028665 0.00081655 0)
(0.028859 0.000837845 2.41254e-24)
(0.0290535 0.000851121 0)
(0.029248 0.000857136 0)
(0.0294414 0.000856703 7.90945e-24)
(0.0296324 0.000850647 -5.44111e-24)
(0.0298192 0.000839769 -5.65372e-24)
(0.0299999 0.000824817 0)
(0.0301723 0.000806458 -7.90312e-22)
(0.0303339 0.000785276 7.92494e-22)
(0.0304825 0.000761764 -8.53228e-22)
(0.0306157 0.000736337 8.60598e-22)
(0.0307315 0.000709342 7.15188e-24)
(0.0308283 0.000681074 9.67999e-22)
(0.0309044 0.000651792 -1.99104e-21)
(0.0309589 0.000621724 1.03953e-21)
(0.0309908 0.000591079 -1.11515e-21)
(0.0309993 0.000560047 1.16702e-21)
(0.0309836 0.000528801 -6.26679e-22)
(0.0309429 0.000497489 1.31871e-21)
(0.0308764 0.000466242 -7.08017e-22)
(0.030783 0.000435161 0)
(0.0306614 0.000404327 6.3821e-24)
(0.0305103 0.000373802 0)
(0.0303285 0.000343632 9.53815e-22)
(0.0301149 0.000313864 7.84019e-24)
(0.0298688 0.000284547 -1.11962e-21)
(0.0295899 0.000255753 0)
(0.0292783 0.000227577 -5.12693e-24)
(0.0289345 0.000200145 0)
(0.0285587 0.000173614 5.95077e-24)
(0.0281509 0.000148168 -8.24462e-22)
(0.0277102 0.00012401 8.94831e-22)
(0.0272347 0.000101357 -9.59114e-22)
(0.0267208 8.04288e-05 1.03444e-21)
(0.0261636 6.14429e-05 -5.64069e-22)
(0.0255558 4.46005e-05 1.21171e-21)
(0.0248885 3.00749e-05 -6.57219e-22)
(0.0241505 1.79948e-05 2.7856e-24)
(0.0233287 8.42337e-06 -3.03686e-24)
(0.0224077 1.33842e-06 0)
(0.0213696 -3.38391e-06 1.83344e-24)
(0.0201922 -5.97504e-06 2.027e-24)
(0.0188457 -6.76649e-06 -2.25329e-24)
(0.0172856 -6.1695e-06 0)
(0.0154357 -4.6525e-06 -1.90565e-22)
(0.0131423 -2.75283e-06 2.39021e-22)
(0.0100049 -1.05444e-06 -1.75469e-22)
(0.00457423 2.47379e-07 2.5642e-22)
(0.00553009 -0.00091303 0)
(0.0116051 -0.00171726 0)
(0.0148317 -0.00205145 0)
(0.0169978 -0.00218632 -1.58785e-21)
(0.0186073 -0.00222162 -3.78258e-22)
(0.0198628 -0.00219947 1.35254e-21)
(0.0208706 -0.00213824 2.0533e-25)
(0.0216952 -0.00204854 1.73826e-25)
(0.0223805 -0.00193802 1.21579e-25)
(0.0229582 -0.00181251 0)
(0.0234527 -0.00167656 -1.95891e-25)
(0.0238829 -0.00153369 1.8799e-21)
(0.0242635 -0.00138662 1.85708e-22)
(0.0246059 -0.00123744 -1.74024e-21)
(0.024919 -0.00108777 1.93054e-21)
(0.0252096 -0.000938883 -1.79736e-21)
(0.0254829 -0.000791846 1.96752e-21)
(0.0257428 -0.000647582 -3.83785e-21)
(0.0259922 -0.000506951 3.88828e-21)
(0.0262332 -0.000370789 -1.90791e-21)
(0.0264674 -0.000239933 -9.55284e-25)
(0.026696 -0.00011522 0)
(0.0269197 2.52106e-06 -2.11021e-21)
(0.0271394 0.000112499 2.03819e-21)
(0.0273556 0.000213991 2.17314e-21)
(0.0275689 0.00030638 -4.31704e-21)
(0.0277798 0.000389192 4.3915e-21)
(0.0279889 0.000462118 -2.19241e-21)
(0.0281966 0.000525043 -2.32701e-21)
(0.0284033 0.000578044 2.29308e-21)
(0.0286093 0.000621392 0)
(0.0288147 0.000655532 1.24206e-21)
(0.0290192 0.00068106 -1.2349e-21)
(0.0292223 0.000698682 1.31171e-21)
(0.0294233 0.000709177 -1.31902e-21)
(0.0296208 0.000713357 5.38182e-24)
(0.0298134 0.000712024 0)
(0.0299991 0.000705943 2.87049e-24)
(0.0301759 0.000695812 5.97937e-24)
(0.0303415 0.00068225 0)
(0.0304936 0.000665794 9.67629e-24)
(0.0306302 0.000646903 -1.72205e-21)
(0.0307491 0.000625968 3.58555e-21)
(0.0308488 0.000603325 -1.8575e-21)
(0.0309278 0.00057927 -1.9862e-21)
(0.0309849 0.000554066 1.01694e-21)
(0.0310193 0.000527954 -2.55604e-24)
(0.0310302 0.000501152 1.14049e-21)
(0.0310168 0.000473857 1.21977e-21)
(0.0309784 0.000446244 -2.58566e-21)
(0.0309142 0.000418462 2.76844e-21)
(0.030823 0.000390633 -1.47179e-21)
(0.0307037 0.000362857 3.10874e-24)
(0.030555 0.00033521 1.72638e-21)
(0.0303756 0.000307755 -1.86287e-21)
(0.0301645 0.00028055 3.93212e-24)
(0.0299208 0.00025366 0)
(0.0296444 0.000227164 0)
(0.0293351 0.00020117 0)
(0.0289933 0.000175814 -2.69904e-24)
(0.0286193 0.000151262 -1.50323e-21)
(0.0282128 0.00012771 3.22918e-21)
(0.0277729 0.000105368 -1.74779e-21)
(0.0272975 8.44647e-05 3.66384e-24)
(0.0267831 6.52277e-05 0)
(0.0262243 4.78811e-05 -1.09876e-21)
(0.0256141 3.26318e-05 1.18704e-21)
(0.0249433 1.96553e-05 -2.51606e-24)
(0.0242007 9.07836e-06 -1.37498e-26)
(0.0233733 9.57376e-07 -7.62619e-22)
(0.0224458 -4.74213e-06 8.36824e-22)
(0.0214007 -8.16128e-06 0)
(0.020216 -9.5527e-06 -1.97852e-24)
(0.0188626 -9.27104e-06 5.67218e-22)
(0.0172966 -7.74919e-06 -6.45407e-22)
(0.0154423 -5.47409e-06 -2.97242e-24)
(0.0131467 -3.00186e-06 -4.72201e-22)
(0.0100102 -9.42759e-07 3.41479e-22)
(0.00458101 5.20144e-07 4.84012e-22)
(0.00398869 -0.00104604 3.49001e-20)
(0.00949684 -0.00212395 7.87242e-22)
(0.0128012 -0.00262601 8.81421e-22)
(0.0151532 -0.00284707 -5.99677e-21)
(0.01696 -0.00291455 0)
(0.0183946 -0.00289418 -3.44011e-25)
(0.019558 -0.00281831 -5.39228e-21)
(0.0205179 -0.00270529 4.63388e-21)
(0.0213219 -0.0025671 -1.2572e-25)
(0.022005 -0.00241201 0)
(0.0225936 -0.00224593 0)
(0.0231079 -0.00207319 -2.30316e-21)
(0.0235637 -0.00189709 4.35143e-21)
(0.0239735 -0.00172014 1.58133e-22)
(0.0243468 -0.00154422 -2.05252e-21)
(0.0246915 -0.00137078 4.90458e-25)
(0.0250136 -0.00120093 -2.16555e-21)
(0.0253176 -0.00103553 -1.23084e-22)
(0.0256072 -0.000875314 2.03357e-21)
(0.0258851 -0.000720936 2.14871e-21)
(0.0261534 -0.000573012 -2.04482e-21)
(0.0264135 -0.00043216 0)
(0.0266666 -0.000299 -1.01985e-24)
(0.0269136 -0.000174145 -1.03061e-24)
(0.0271553 -5.81792e-05 0)
(0.0273922 4.83748e-05 -1.05652e-24)
(0.027625 0.000145089 0)
(0.0278542 0.000231666 0)
(0.0280803 0.000307963 -2.31937e-21)
(0.0283037 0.00037401 2.28093e-21)
(0.0285247 0.000430016 0)
(0.0287435 0.00047636 -2.36997e-24)
(0.02896 0.000513574 -2.42132e-24)
(0.0291737 0.000542312 -2.58049e-21)
(0.029384 0.000563316 2.58309e-21)
(0.0295898 0.000577376 0)
(0.0297897 0.000585291 -2.81996e-21)
(0.029982 0.000587833 -6.00515e-23)
(0.0301646 0.000585724 5.97964e-21)
(0.0303356 0.000579615 -3.069e-21)
(0.0304928 0.00057008 3.13261e-24)
(0.030634 0.000557618 3.26204e-24)
(0.0307573 0.000542658 6.83725e-24)
(0.0308611 0.000525575 1.84896e-21)
(0.0309439 0.000506698 2.74195e-23)
(0.0310048 0.000486323 -4.0266e-21)
(0.0310426 0.000464718 2.10241e-21)
(0.0310568 0.00044213 -2.24208e-21)
(0.0310467 0.000418779 2.36472e-21)
(0.0310114 0.000394861 2.54098e-21)
(0.0309502 0.000370547 -2.69512e-21)
(0.0308621 0.000345977 2.89728e-21)
(0.0307458 0.000321268 -1.54783e-21)
(0.0306001 0.000296513 -3.36817e-21)
(0.0304238 0.000271788 -4.086e-24)
(0.0302157 0.000247164 3.93422e-21)
(0.0299752 0.000222716 6.91573e-24)
(0.0297017 0.000198536 -2.31262e-21)
(0.0293952 0.000174739 0)
(0.0290559 0.000151473 -2.62474e-24)
(0.0286839 0.000128913 0)
(0.028279 0.000107262 -1.58634e-21)
(0.0278402 8.67451e-05 3.40931e-21)
(0.0273652 6.75963e-05 -3.68537e-21)
(0.0268503 5.00547e-05 1.98855e-21)
(0.0262903 3.43522e-05 2.14949e-21)
(0.0256778 2.07016e-05 -2.33e-21)
(0.0250037 9.28169e-06 -1.26435e-21)
(0.0242567 2.17474e-07 -5.9934e-24)
(0.0234238 -6.44158e-06 -5.12003e-25)
(0.0224901 -1.0743e-05 1.64177e-21)
(0.0214381 -1.28467e-05 9.01256e-22)
(0.0202465 -1.3028e-05 -9.95542e-22)
(0.0188865 -1.16657e-05 2.17701e-24)
(0.0173148 -9.2139e-06 0)
(0.0154563 -6.17629e-06 7.43501e-22)
(0.0131588 -3.12822e-06 -9.32592e-22)
(0.0100235 -7.17312e-07 2.64235e-24)
(0.0045945 8.71297e-07 0)
(0.00226048 -0.000906941 -3.32833e-24)
(0.00667104 -0.00209104 -2.58658e-20)
(0.00980436 -0.00277705 1.59476e-20)
(0.0122853 -0.00315623 0)
(0.0143468 -0.00333418 0)
(0.0160731 -0.00338149 9.31424e-21)
(0.0175197 -0.00334051 -7.88986e-21)
(0.0187346 -0.00323921 -7.60744e-21)
(0.0197603 -0.00309789 6.63047e-21)
(0.0206336 -0.00293099 6.53439e-21)
(0.0213849 -0.00274842 -5.80582e-21)
(0.0220391 -0.00255689 3.06029e-24)
(0.0226156 -0.00236097 0)
(0.02313 -0.00216389 0)
(0.0235946 -0.00196801 5.10374e-21)
(0.024019 -0.00177507 -4.71459e-21)
(0.0244111 -0.00158641 -4.82645e-21)
(0.0247769 -0.00140305 4.50635e-21)
(0.0251213 -0.00122576 -4.63765e-21)
(0.0254482 -0.00105519 4.37878e-21)
(0.0257605 -0.000891887 -9.94732e-24)
(0.0260605 -0.000736343 0)
(0.0263499 -0.000589049 0)
(0.0266301 -0.000450492 8.6924e-24)
(0.0269022 -0.000321147 4.46455e-21)
(0.0271672 -0.000201455 -4.32433e-21)
(0.0274256 -9.18004e-05 -4.51742e-21)
(0.0276783 7.52953e-06 4.39907e-21)
(0.0279258 9.63712e-05 -2.20386e-24)
(0.0281687 0.00017471 -2.2383e-24)
(0.0284073 0.000242695 4.72883e-21)
(0.0286419 0.000300638 -7.12611e-21)
(0.0288726 0.000349007 2.40053e-21)
(0.029099 0.000388397 -2.54876e-21)
(0.0293206 0.000419509 2.51022e-21)
(0.0295366 0.000443103 -2.67096e-21)
(0.0297456 0.000459967 2.69198e-21)
(0.0299462 0.000470879 -5.51031e-24)
(0.0301365 0.000476576 2.2758e-23)
(0.0303145 0.000477739 -2.95447e-23)
(0.0304782 0.000474972 -3.0716e-23)
(0.0306255 0.000468812 -3.33674e-21)
(0.0307546 0.000459723 3.38879e-21)
(0.0308639 0.000448114 3.59215e-21)
(0.030952 0.000434347 -7.48862e-21)
(0.0310177 0.000418746 7.86146e-21)
(0.0310602 0.000401607 -6.18788e-21)
(0.0310788 0.0003832 -2.87396e-23)
(0.0310729 0.000363768 -1.93231e-23)
(0.0310417 0.000343528 2.45314e-21)
(0.0309844 0.000322669 4.10056e-23)
(0.0309001 0.000301352 2.82758e-21)
(0.0307877 0.000279708 -3.0248e-21)
(0.0306459 0.000257846 -1.91105e-23)
(0.0304734 0.000235855 -3.57491e-21)
(0.0302692 0.000213818 7.69815e-21)
(0.0300324 0.000191821 -2.1e-21)
(0.0297625 0.000169965 -2.24403e-21)
(0.0294594 0.000148373 -2.44166e-21)
(0.0291231 0.000127202 -4.65535e-25)
(0.0287537 0.000106636 2.85079e-21)
(0.0283509 8.68881e-05 -3.07979e-21)
(0.0279134 6.8192e-05 3.32891e-21)
(0.0274391 5.07934e-05 0)
(0.0269242 3.49413e-05 -1.96264e-21)
(0.0263632 2.08766e-05 2.09432e-21)
(0.0257487 8.81961e-06 1.78158e-23)
(0.0250715 -1.04729e-06 2.48263e-21)
(0.0243205 -8.59994e-06 -2.69739e-21)
(0.0234825 -1.37959e-05 0)
(0.0225428 -1.66962e-05 1.2549e-23)
(0.0214843 -1.74805e-05 0)
(0.0202859 -1.64479e-05 1.9101e-24)
(0.0189195 -1.4002e-05 1.08939e-21)
(0.0173423 -1.06186e-05 -1.24866e-21)
(0.0154798 -6.81817e-06 1.13545e-23)
(0.0131805 -3.19588e-06 0)
(0.010047 -4.40661e-07 2.06218e-23)
(0.00461634 1.24897e-06 0)
(0.000855232 -0.000548583 -6.95458e-20)
(0.0038223 -0.00155158 4.55875e-20)
(0.00637869 -0.00231305 -2.7559e-20)
(0.00869244 -0.00284967 4.03641e-20)
(0.0108463 -0.00320287 2.90026e-22)
(0.0128229 -0.00341064 -1.37428e-20)
(0.0145989 -0.0034999 -4.27116e-24)
(0.0161651 -0.00349381 -1.08853e-20)
(0.0175271 -0.00341518 1.9294e-20)
(0.0187024 -0.00328509 2.35573e-22)
(0.0197147 -0.003121 2.31421e-22)
(0.0205899 -0.00293609 -7.24518e-21)
(0.0213524 -0.0027396 6.90039e-21)
(0.0220236 -0.00253765 -6.24951e-21)
(0.0226211 -0.00233426 1.52174e-23)
(0.0231589 -0.00213209 5.75338e-21)
(0.0236484 -0.00193301 -5.29432e-21)
(0.0240985 -0.00173844 -5.25741e-21)
(0.0245163 -0.00154947 4.90859e-21)
(0.0249074 -0.00136697 0)
(0.0252763 -0.00119167 9.01243e-24)
(0.0256265 -0.00102415 0)
(0.0259609 -0.000864957 -4.64809e-21)
(0.0262816 -0.000714564 4.43501e-21)
(0.0265903 -0.000573434 2.64427e-23)
(0.0268885 -0.000441991 -4.54623e-21)
(0.0271772 -0.000320616 4.36409e-21)
(0.0274574 -0.000209612 -4.59433e-21)
(0.0277299 -0.000109181 4.44705e-21)
(0.0279954 -1.93937e-05 0)
(0.0282545 5.98286e-05 1.80198e-23)
(0.0285077 0.000128723 4.81942e-21)
(0.028755 0.000187682 -4.72378e-21)
(0.0289964 0.000237238 4.97888e-21)
(0.0292316 0.000278036 -4.93807e-21)
(0.0294597 0.000310802 5.26171e-21)
(0.0296799 0.000336304 1.59714e-22)
(0.0298906 0.000355317 -5.43784e-21)
(0.0300903 0.000368591 -2.22692e-23)
(0.030277 0.000376827 -2.95564e-21)
(0.0304489 0.00038066 3.01835e-21)
(0.0306039 0.000380657 3.24559e-21)
(0.0307404 0.000377318 -3.30937e-21)
(0.0308565 0.000371082 0)
(0.0309511 0.000362341 0)
(0.031023 0.000351446 -3.85277e-21)
(0.0310714 0.000338718 -4.11071e-23)
(0.0310955 0.000324447 4.23828e-21)
(0.0310949 0.000308899 -7.0359e-23)
(0.0310687 0.00029231 7.482e-23)
(0.0310163 0.000274887 -4.01005e-23)
(0.0309368 0.000256808 0)
(0.0308291 0.00023822 0)
(0.030692 0.000219246 1.24273e-22)
(0.0305242 0.000199988 -3.37083e-21)
(0.0303246 0.00018054 7.43262e-21)
(0.0300923 0.000160996 -1.82646e-23)
(0.0298267 0.000141467 -4.37864e-21)
(0.0295276 0.000122083 0)
(0.0291949 0.000103007 8.0241e-23)
(0.0288286 8.44337e-05 2.78607e-21)
(0.0284283 6.65835e-05 -3.00764e-21)
(0.0279927 4.97001e-05 -5.07519e-23)
(0.0275195 3.40401e-05 0)
(0.0270048 1.98631e-05 -4.44855e-23)
(0.0264431 7.42022e-06 1.61523e-23)
(0.0258271 -3.06024e-06 -1.75235e-23)
(0.0251472 -1.1391e-05 -2.43265e-21)
(0.0243924 -1.74479e-05 -1.12769e-24)
(0.0235497 -2.11952e-05 2.88635e-21)
(0.0226044 -2.27073e-05 -3.19351e-21)
(0.0215396 -2.21836e-05 3.43655e-21)
(0.0203347 -1.99474e-05 -1.88294e-21)
(0.0189622 -1.64266e-05 2.13502e-21)
(0.0173797 -1.21178e-05 -2.83562e-23)
(0.0155133 -7.55616e-06 1.10784e-23)
(0.0132125 -3.35444e-06 8.66732e-22)
(0.0100811 -2.40133e-07 -1.31653e-21)
(0.00464679 1.57885e-06 5.77663e-23)
(5.72181e-05 -0.000190545 1.92766e-19)
(0.0017166 -0.000828022 0)
(0.00345869 -0.0014795 0)
(0.00526057 -0.00204074 5.93859e-24)
(0.00715763 -0.00250703 2.17717e-23)
(0.00910122 -0.00287729 1.23056e-23)
(0.0110244 -0.00314635 7.18432e-24)
(0.0128639 -0.00331202 0)
(0.0145697 -0.00338011 -1.31129e-20)
(0.0161105 -0.00336389 2.34379e-20)
(0.0174745 -0.00328095 -1.05134e-20)
(0.0186661 -0.00314967 8.57633e-24)
(0.0197013 -0.00298644 -8.76274e-21)
(0.0206014 -0.00280412 1.59109e-20)
(0.0213891 -0.00261173 -7.31544e-21)
(0.0220851 -0.00241518 -1.25355e-23)
(0.0227069 -0.0022181 -6.39431e-21)
(0.0232688 -0.00202283 5.89183e-21)
(0.0237819 -0.00183102 -5.70005e-21)
(0.0242551 -0.00164391 -1.28161e-22)
(0.0246952 -0.00146258 5.09584e-21)
(0.0251078 -0.00128793 -5.09147e-21)
(0.025497 -0.00112074 4.78116e-21)
(0.0258664 -0.000961693 -4.80289e-21)
(0.0262186 -0.000811402 4.57128e-21)
(0.0265558 -0.000670401 0)
(0.0268797 -0.000539156 3.53012e-23)
(0.0271917 -0.000418054 -3.63567e-23)
(0.0274931 -0.000307382 -7.1512e-23)
(0.0277846 -0.000207302 7.17354e-23)
(0.0280673 -0.00011783 0)
(0.0283417 -3.88265e-05 -1.09421e-22)
(0.0286083 3.00082e-05 -4.79719e-21)
(0.028867 8.91235e-05 -1.19548e-22)
(0.0291179 0.000139097 4.88069e-21)
(0.0293603 0.000180603 -1.18838e-22)
(0.0295934 0.000214379 -1.22276e-22)
(0.0298161 0.000241186 0)
(0.0300268 0.000261776 -5.7078e-21)
(0.0302238 0.000276864 5.72054e-21)
(0.0304054 0.000287109 -4.66692e-23)
(0.0305696 0.000293107 3.14647e-21)
(0.0307146 0.000295384 -5.46009e-23)
(0.030839 0.000294411 -6.80706e-21)
(0.0309413 0.000290605 3.54267e-21)
(0.0310206 0.000284342 1.16749e-22)
(0.0310758 0.000275963 3.9577e-21)
(0.0311065 0.000265782 -4.26697e-21)
(0.0311121 0.000254081 4.48947e-21)
(0.0310919 0.000241116 -4.73525e-21)
(0.0310452 0.00022711 -4.85481e-21)
(0.0309713 0.000212255 5.16665e-21)
(0.030869 0.000196716 -5.58805e-21)
(0.0307373 0.000180626 6.09246e-21)
(0.0305749 0.000164101 5.21381e-23)
(0.0303805 0.000147243 0)
(0.0301534 0.000130158 6.16949e-23)
(0.0298927 0.000112959 4.2797e-21)
(0.0295982 9.57874e-05 -4.62775e-21)
(0.0292696 7.88103e-05 -2.89706e-25)
(0.0289069 6.22288e-05 5.44077e-21)
(0.0285095 4.6273e-05 -5.87776e-21)
(0.0280761 3.11957e-05 4.98222e-23)
(0.0276043 1.72639e-05 0)
(0.0270902 4.74801e-06 3.6732e-21)
(0.0265283 -6.09065e-06 -4.04111e-21)
(0.0259109 -1.50153e-05 6.84487e-23)
(0.0252287 -2.18335e-05 -2.31134e-21)
(0.0244705 -2.6421e-05 2.59628e-21)
(0.0236233 -2.87476e-05 8.83605e-23)
(0.0226727 -2.89007e-05 -3.07285e-21)
(0.0216019 -2.70982e-05 6.82302e-21)
(0.0203908 -2.36853e-05 -3.78135e-21)
(0.0190122 -1.91112e-05 0)
(0.0174246 -1.38889e-05 2.41727e-21)
(0.0155545 -8.56282e-06 -2.81851e-21)
(0.0132522 -3.75846e-06 2.74489e-23)
(0.0101232 -2.36399e-07 0)
(0.00468388 1.79831e-06 -5.71151e-23)
(-0.000287703 5.28654e-05 2.26697e-19)
(0.000490074 -0.000235077 -1.62093e-19)
(0.00151883 -0.000683253 9.32876e-20)
(0.0027123 -0.00113742 -6.70721e-20)
(0.0041117 -0.00158235 -5.45223e-20)
(0.00570471 -0.0020063 -1.34224e-22)
(0.00744909 -0.00238946 -1.42885e-22)
(0.00928418 -0.00270951 -1.21403e-22)
(0.0111398 -0.00294878 3.2736e-20)
(0.0129464 -0.00309842 0)
(0.0146454 -0.0031596 -2.67727e-20)
(0.0161959 -0.00314219 2.40728e-20)
(0.0175776 -0.00306174 -2.1958e-20)
(0.0187893 -0.00293569 1.98045e-20)
(0.0198436 -0.00277996 3.32971e-23)
(0.0207611 -0.00260705 0)
(0.0215645 -0.00242557 6.2015e-23)
(0.0222754 -0.00224085 0)
(0.0229118 -0.00205606 0)
(0.0234883 -0.00187315 -6.13505e-21)
(0.0240162 -0.00169354 1.14985e-20)
(0.0245043 -0.00151841 -5.37566e-21)
(0.0249591 -0.00134884 8.37476e-23)
(0.0253859 -0.00118582 0)
(0.0257889 -0.00103025 0)
(0.0261712 -0.0008829 -4.84761e-21)
(0.0265355 -0.000744462 4.57725e-21)
(0.0268837 -0.000615504 1.45514e-22)
(0.0272177 -0.000496475 1.44542e-22)
(0.0275387 -0.000387687 -2.16855e-22)
(0.027848 -0.0002893 4.68579e-21)
(0.0281464 -0.000201307 -4.53349e-21)
(0.0284346 -0.000123533 0)
(0.0287129 -5.56368e-05 -1.50136e-22)
(0.0289815 2.86546e-06 -4.94479e-21)
(0.02924 5.25774e-05 5.02856e-21)
(0.0294879 9.41853e-05 2.41046e-22)
(0.0297241 0.000128421 -1.6548e-22)
(0.0299473 0.000156024 8.55741e-23)
(0.0301561 0.000177714 0)
(0.0303486 0.000194164 9.20576e-23)
(0.0305232 0.000205989 0)
(0.030678 0.000213741 2.99126e-22)
(0.0308117 0.000217915 2.08136e-22)
(0.0309228 0.00021895 0)
(0.0310103 0.000217244 3.79694e-21)
(0.0310734 0.000213158 -3.59327e-21)
(0.0311115 0.000207022 1.27293e-22)
(0.031124 0.000199137 -4.32214e-21)
(0.0311104 0.000189772 -3.43424e-23)
(0.0310701 0.000179167 9.75451e-21)
(0.0310024 0.00016753 1.95003e-22)
(0.0309062 0.000155036 -3.20705e-22)
(0.0307804 0.000141832 2.88546e-23)
(0.0306238 0.000128045 -6.42757e-21)
(0.0304353 0.000113786 0)
(0.0302138 9.91674e-05 0)
(0.0299585 8.43104e-05 0)
(0.029669 6.93595e-05 4.52863e-21)
(0.029345 5.4489e-05 -4.97525e-21)
(0.0289862 3.99058e-05 0)
(0.0285921 2.58477e-05 1.79543e-22)
(0.0281613 1.25765e-05 1.94397e-22)
(0.0276912 3.69445e-07 0)
(0.027178 -1.04921e-05 1.14438e-22)
(0.026616 -1.97361e-05 1.23722e-22)
(0.0259976 -2.71168e-05 -6.74023e-23)
(0.0253133 -3.24357e-05 -7.32986e-23)
(0.0245519 -3.55673e-05 -7.95635e-23)
(0.0237004 -3.64865e-05 -8.70794e-23)
(0.0227446 -3.5292e-05 0)
(0.021668 -3.2219e-05 0)
(0.0204508 -2.76324e-05 -1.14923e-22)
(0.0190665 -2.20006e-05 0)
(0.0174738 -1.58504e-05 -2.3347e-21)
(0.0156001 -9.73477e-06 1.3713e-21)
(0.0132964 -4.29554e-06 1.26395e-25)
(0.0101702 -3.25327e-07 2.41403e-21)
(0.00472542 1.95876e-06 0)
(-0.000444507 0.000211703 -2.50439e-19)
(-0.000192752 0.000190196 -1.81149e-19)
(0.000363996 -7.10159e-05 1.03977e-19)