/*--------------------------------*- C++ -*----------------------------------*\
  =========                 |
  \\      /  F ield         | OpenFOAM: The Open Source CFD Toolbox
   \\    /   O peration     | Website:  https://openfoam.org
    \\  /    A nd           | Version:  7
     \\/     M anipulation  |
\*---------------------------------------------------------------------------*/
FoamFile
{
    version     2.0;
    format      ascii;
    class       volScalarField;
    location    "0";
    object      nut;
}
// * * * * * * * * * * * * * * * * * * * * * * * * * * * * * * * * * * * * * //

dimensions      [0 2 -1 0 0 0 0];

internalField   nonuniform List<scalar> 
10981
(
2.76608e-06
5.79986e-06
7.71027e-06
1.28164e-05
2.02241e-05
2.70442e-05
3.56188e-05
5.37224e-05
7.30299e-05
0.000110256
0.000190183
0.000326945
0.000365263
0.000118059
-9.63276e-05
-0.000231003
-0.000349976
-0.000476237
-0.000619026
-0.00077163
-0.000927652
-0.00109117
-0.00124628
-0.00134941
-0.00138395
-0.00132715
-0.00104961
-0.000767813
-0.000273733
0.000192932
0.000570716
0.00079738
0.000878262
0.000965
0.00102813
0.000996925
0.000927891
0.00089522
0.000886468
0.000848902
0.000784352
0.000678114
0.000621826
0.000565978
0.000485249
0.000329976
0.000203869
2.3768e-05
-0.000171966
-0.000449787
-0.000658744
-0.000915595
-0.0010025
-0.000931428
-0.00070086
-0.000446413
-0.000317697
-0.000178346
-8.88466e-05
-4.97578e-05
-7.40718e-06
1.09245e-05
3.03646e-05
3.81327e-05
4.59658e-05
4.84917e-05
4.98582e-05
4.91796e-05
4.6017e-05
4.32343e-05
3.72671e-05
3.33719e-05
2.92622e-05
2.52192e-05
1.82818e-05
1.48198e-05
1.17054e-05
8.98064e-06
6.67345e-06
-1.19216e-06
5.52393e-06
7.32853e-06
1.15372e-05
1.97916e-05
2.70449e-05
3.67209e-05
5.53915e-05
7.24062e-05
9.71404e-05
0.000141237
0.000203948
0.000289301
0.000334265
0.000251616
3.87812e-05
-0.000190795
-0.000312011
-0.000545933
-0.000818502
-0.00110565
-0.00144892
-0.00184295
-0.00222188
-0.00240886
-0.00244223
-0.00180832
-0.00114998
-9.62358e-05
0.000624094
0.00093555
0.00114754
0.00119157
0.00119423
0.00120121
0.00116273
0.00107053
0.000990301
0.000968531
0.000922189
0.000857812
0.000751007
0.000685011
0.000606928
0.000532577
0.000389195
0.000276023
6.47825e-05
-0.000155855
-0.000454128
-0.00064603
-0.000951083
-0.0010452
-0.000976245
-0.000719277
-0.000441607
-0.000325665
-0.000174812
-8.1673e-05
-4.79079e-05
-3.45514e-06
1.24986e-05
3.27854e-05
3.96043e-05
4.7721e-05
4.98663e-05
5.1032e-05
5.02974e-05
4.67248e-05
4.39861e-05
3.74146e-05
3.35985e-05
2.95656e-05
2.55832e-05
1.81738e-05
1.47722e-05
1.16957e-05
8.99477e-06
6.6948e-06
-1.33965e-06
1.22849e-05
2.16063e-05
1.22275e-05
1.97143e-05
2.67563e-05
4.23066e-05
5.50581e-05
7.20991e-05
9.50395e-05
0.000156554
0.000226292
0.000298831
0.000344567
0.000284527
0.000109878
-8.8206e-05
-0.000309946
-0.000563627
-0.000874221
-0.00123148
-0.00145108
-0.00192655
-0.00246966
-0.00279603
-0.00294424
-0.00213889
-0.00051979
6.65732e-05
0.000818082
0.00108285
0.0012547
0.00128682
0.001268
0.00125369
0.00120981
0.00111691
0.00102333
0.000993869
0.000945654
0.000880008
0.000776326
0.000664421
0.000620552
0.000546489
0.000409275
0.000293199
7.7248e-05
-0.000145949
-0.000444837
-0.000645368
-0.000957388
-0.00105551
-0.000982342
-0.000723339
-0.000445605
-0.000324354
-0.000174676
-8.21483e-05
-4.71281e-05
-3.20728e-06
1.31816e-05
3.31128e-05
4.00709e-05
4.80041e-05
5.01639e-05
5.12257e-05
5.04516e-05
4.68773e-05
4.40775e-05
3.75281e-05
3.36703e-05
2.95934e-05
2.55669e-05
1.82223e-05
1.47953e-05
1.17055e-05
8.99811e-06
6.69546e-06
-7.51154e-08
4.54188e-05
4.43551e-05
2.62439e-05
2.21032e-05
2.6206e-05
3.94126e-05
5.21193e-05
6.85437e-05
9.62223e-05
0.000122917
0.000155335
0.000201602
0.000262214
0.000319993
0.00037204
0.000376596
0.000254653
1.45068e-05
-0.000355491
-0.000844577
-0.00122519
-0.00205281
-0.00328001
-0.00432279
-0.00526157
-4.82404e-05
0.0006632
0.00155882
0.00205046
0.00198551
0.00184907
0.00176794
0.00168134
0.0015495
0.00145345
0.0013567
0.00123187
0.00115603
0.0010813
0.00100615
0.0009146
0.000825709
0.000715018
0.000631476
0.000517232
0.000395552
0.000166475
-6.75318e-05
-0.000378866
-0.000635197
-0.000992282
-0.00112195
-0.00102628
-0.000753834
-0.000467378
-0.000320957
-0.000173892
-8.57315e-05
-4.40587e-05
-1.78792e-06
1.65068e-05
3.49183e-05
4.25805e-05
4.95948e-05
5.17705e-05
5.24103e-05
5.12637e-05
4.78179e-05
4.4754e-05
3.88074e-05
3.42217e-05
2.97435e-05
2.49962e-05
1.87641e-05
1.48926e-05
1.16531e-05
8.8515e-06
6.47325e-06
-8.88942e-07
2.61382e-06
-1.85332e-05
3.88449e-05
6.0419e-05
3.60435e-05
3.71063e-05
3.82637e-05
4.68124e-05
6.15634e-05
8.17717e-05
0.000105188
0.000134133
0.000168765
0.000208064
0.000256267
0.000319045
0.000392818
0.000471535
0.000536649
0.000528988
0.000411235
6.31406e-05
-0.000675873
-0.00166125
-0.00741251
-0.0004258
0.0132706
0.00568192
0.00397457
0.00309579
0.00257121
0.00232634
0.00208561
0.00186473
0.00170521
0.00157992
0.00149593
0.00136328
0.00124103
0.00114169
0.00108489
0.000976943
0.000846892
0.000738733
0.00062545
0.000528567
0.000307769
4.3458e-05
-0.000148419
-0.000551819
-0.000993416
-0.00119485
-0.00111464
-0.000807611
-0.000491566
-0.00034638
-0.000181994
-0.000119824
-4.59214e-05
-9.26609e-07
1.59049e-05
3.5958e-05
4.29847e-05
5.08473e-05
5.2969e-05
5.36005e-05
5.25815e-05
4.86695e-05
4.56717e-05
4.2174e-05
3.4656e-05
3.04406e-05
2.6182e-05
1.85433e-05
1.50377e-05
1.188e-05
9.11233e-06
6.76809e-06
-5.1482e-07
7.09574e-07
3.42721e-06
-2.02359e-05
5.62958e-05
-1.2184e-06
7.48395e-05
8.68696e-05
7.43128e-05
6.68865e-05
6.99208e-05
8.01255e-05
9.38101e-05
0.000115626
0.000142208
0.000174866
0.000213916
0.000260317
0.000320314
0.000395661
0.000487825
0.000598909
0.00074291
0.00092413
0.00126666
0.00194142
-0.00123846
0.00730543
0.00636648
0.00471597
0.00371071
0.00304179
0.00261918
0.0023424
0.00218038
0.00194172
0.00179093
0.00165523
0.00152372
0.00138993
0.00131449
0.00120678
0.00110354
0.000879654
0.000811387
0.000700611
0.000561904
0.000347546
0.000198284
-0.000101285
-0.0005058
-0.000985158
-0.0011617
-0.00114533
-0.00082448
-0.000638236
-0.000356572
-0.000183903
-0.000124075
-4.69059e-05
-5.93755e-07
1.56003e-05
3.62192e-05
4.30423e-05
5.11121e-05
5.31984e-05
5.38488e-05
5.28367e-05
4.88475e-05
4.58673e-05
4.24082e-05
3.47494e-05
3.05728e-05
2.62979e-05
1.85504e-05
1.50522e-05
1.18958e-05
9.12581e-06
6.77753e-06
-9.35958e-07
-2.78563e-06
-3.73495e-06
-6.13362e-06
-1.08037e-05
-1.86671e-05
6.9843e-05
0.00012316
8.03108e-05
7.02439e-05
6.69291e-05
7.02034e-05
7.96851e-05
9.47795e-05
0.000117197
0.000145622
0.000180268
0.000219665
0.000265579
0.000328841
0.000411412
0.000527106
0.000695075
0.000943346
0.0013529
0.00207018
0.00333262
0.00721462
0.00632451
0.00491702
0.00390106
0.00339605
0.00285114
0.00253015
0.00225011
0.00199335
0.00184094
0.00174443
0.00161415
0.00148781
0.0013509
0.00124015
0.0011427
0.0010604
0.000933603
0.000813625
0.000682897
0.00057169
0.000343329
3.17842e-05
-0.000360002
-0.000720116
-0.00120682
-0.00125285
-0.00104519
-0.000679302
-0.00038543
-0.000254488
-0.000127318
-5.03517e-05
-1.75002e-05
1.62327e-05
3.63893e-05
4.44257e-05
5.21756e-05
5.45601e-05
5.51649e-05
5.40065e-05
5.01156e-05
4.68249e-05
4.29532e-05
3.55515e-05
3.10743e-05
2.65195e-05
1.89987e-05
1.53133e-05
1.20209e-05
9.16726e-06
6.77175e-06
-2.51981e-07
4.90614e-07
-3.6884e-07
-3.42329e-06
-7.5315e-06
-1.05286e-05
-1.35112e-05
1.34598e-05
5.1144e-05
0.000141735
0.000139691
0.000106523
0.000100293
0.000104335
0.000114345
0.000128045
0.000145538
0.00016864
0.000198114
0.000235636
0.00028151
0.000343588
0.00043625
0.000578337
0.000818296
0.00123023
0.00191532
0.00298471
0.00391699
0.00397436
0.00358909
0.00314042
0.00278753
0.00253756
0.00241388
0.0021884
0.00198729
0.00185981
0.00172604
0.00160588
0.00147987
0.00139765
0.0012912
0.00118261
0.00106098
0.00094137
0.000861619
0.000713397
0.000516782
0.000218984
-2.22204e-05
-0.000549583
-0.00121078
-0.00139219
-0.00118866
-0.000753087
-0.000418616
-0.000280517
-0.000135995
-5.23392e-05
-1.92178e-05
1.72218e-05
3.09336e-05
4.59591e-05
5.12748e-05
5.61219e-05
5.68878e-05
5.5503e-05
5.34776e-05
4.80292e-05
4.41505e-05
3.62389e-05
3.17676e-05
2.72437e-05
1.92528e-05
1.55222e-05
1.22082e-05
9.32661e-06
6.89659e-06
-1.54819e-07
7.23013e-07
5.36912e-07
-3.25791e-06
-6.88238e-06
-9.14207e-06
-1.25311e-05
-1.01406e-05
-2.35084e-06
9.60669e-05
0.000173206
0.000124953
0.000104611
0.000102907
0.000109403
0.000119513
0.000132616
0.000150311
0.000174031
0.000205662
0.000244543
0.000292885
0.000360263
0.000463343
0.000629649
0.000916987
0.00139861
0.00218823
0.00320183
0.00381752
0.00372298
0.00332922
0.00294529
0.00264811
0.00243811
0.00222575
0.00201695
0.00188312
0.00180422
0.00167171
0.0015576
0.00142456
0.00131272
0.00120634
0.00113238
0.00101337
0.000889424
0.000743384
0.000551461
0.00039986
3.89808e-05
-0.000485998
-0.00119182
-0.00142396
-0.00124134
-0.000775272
-0.000566793
-0.000292647
-0.000138474
-8.69569e-05
-2.07568e-05
1.76681e-05
3.04504e-05
4.63312e-05
5.13306e-05
5.77912e-05
5.84842e-05
5.69637e-05
5.49445e-05
4.90625e-05
4.53271e-05
3.68199e-05
3.23919e-05
2.79661e-05
1.94714e-05
1.56945e-05
1.23805e-05
9.48826e-06
7.03366e-06
3.28214e-07
1.75948e-07
-7.76884e-07
-1.85531e-06
-2.68464e-06
-2.95655e-06
-4.22724e-06
-6.81512e-06
-1.13853e-05
-8.62228e-06
7.53061e-05
0.000255235
0.000228112
0.00014974
0.000130049
0.000130374
0.000138436
0.000152153
0.000169367
0.000188113
0.000210683
0.000238374
0.000274432
0.000323067
0.0003943
0.000515647
0.000721625
0.00106705
0.00163308
0.00235164
0.00285733
0.00293173
0.00273349
0.00254602
0.00239867
0.00227155
0.00209701
0.00196696
0.00186564
0.00173461
0.00163756
0.00152423
0.00144009
0.00134073
0.00123349
0.00112306
0.00100911
0.000919859
0.000779133
0.000588148
0.0002569
-0.000235939
-0.00076491
-0.00154253
-0.0014324
-0.00106739
-0.000610951
-0.000319672
-0.000156389
-8.98602e-05
-2.35107e-05
3.55269e-06
3.17012e-05
4.75456e-05
5.31342e-05
5.80092e-05
5.87592e-05
5.72854e-05
5.51535e-05
4.9407e-05
4.54925e-05
4.11707e-05
3.256e-05
2.80536e-05
1.96679e-05
1.58017e-05
1.24384e-05
9.51722e-06
7.0487e-06
3.40201e-07
2.35591e-07
-8.35213e-07
-1.65472e-06
-2.23414e-06
-2.46327e-06
-3.3571e-06
-5.8695e-06
-9.83303e-06
-1.24236e-05
3.90737e-05
0.000253592
0.000313591
0.000188079
0.000139901
0.000130207
0.000134407
0.000145032
0.00016053
0.000177554
0.000196385
0.000229484
0.000261949
0.000304617
0.000365341
0.000466229
0.000640416
0.000933197
0.00142492
0.00210698
0.00269469
0.00288492
0.00272662
0.00254287
0.00239747
0.00227863
0.00211677
0.00197295
0.00191843
0.00180503
0.00168379
0.00158726
0.00146529
0.00135751
0.00130612
0.00120213
0.00114344
0.00103126
0.000909674
0.00074269
0.000471168
0.000228545
-0.000504501
-0.00154697
-0.00165765
-0.00128599
-0.000695272
-0.000346246
-0.000222604
-9.60845e-05
-2.52516e-05
2.83635e-06
3.29815e-05
4.43334e-05
5.53944e-05
6.00967e-05
6.0799e-05
5.91294e-05
5.66119e-05
5.09248e-05
4.65635e-05
4.16813e-05
3.33914e-05
2.83599e-05
2.34199e-05
1.6315e-05
1.25425e-05
9.37223e-06
6.72556e-06
2.72032e-07
9.93051e-07
1.3547e-06
1.68748e-06
1.77167e-06
2.79051e-06
3.73971e-06
4.16657e-06
4.88293e-06
5.63636e-06
1.48322e-05
0.00011056
0.000412244
0.00034876
0.000196377
0.000155735
0.000146453
0.000149793
0.000162935
0.000181916
0.000202841
0.000223976
0.000246799
0.000273099
0.000305284
0.000349047
0.000420343
0.000547432
0.000767118
0.00113053
0.00168872
0.00222832
0.00246033
0.00238727
0.00227088
0.00220104
0.00213343
0.00200649
0.00191054
0.00184661
0.00171047
0.00164077
0.00153519
0.00142749
0.00136459
0.00126353
0.00116433
0.00105471
0.000940434
0.000847445
0.000642167
0.000289936
-0.000406301
-0.00150925
-0.00180466
-0.00135633
-0.000723719
-0.000492568
-0.000233727
-9.87924e-05
-5.47569e-05
1.06932e-06
3.42035e-05
4.50287e-05
5.74153e-05
6.06889e-05
6.28535e-05
6.07926e-05
5.83921e-05
5.18942e-05
4.77832e-05
4.33687e-05
3.39481e-05
2.91742e-05
2.46988e-05
1.65027e-05
1.28927e-05
9.81986e-06
7.26635e-06
2.64322e-07
1.02414e-06
1.53233e-06
1.99005e-06
2.11911e-06
3.18546e-06
4.42352e-06
5.14816e-06
5.54013e-06
7.32767e-06
1.61675e-05
9.05403e-05
0.000384394
0.000399227
0.000212709
0.000161593
0.000151647
0.00014753
0.000154252
0.000170427
0.000190831
0.000212737
0.000233533
0.000257233
0.000296809
0.000335218
0.000395567
0.000501806
0.000691993
0.00100746
0.00151244
0.00207619
0.00240263
0.00238671
0.00226726
0.0021905
0.00212912
0.0020125
0.00191359
0.00184346
0.0017358
0.00168667
0.00161263
0.00150661
0.0014189
0.00132603
0.00123559
0.00113816
0.00107888
0.000977969
0.000820052
0.000538415
-2.79132e-05
-0.000878943
-0.00205899
-0.00160375
-0.000870852
-0.000529056
-0.000250413
-0.000109539
-5.51247e-05
-2.63281e-08
3.30644e-05
4.52615e-05
5.75518e-05
6.10589e-05
6.31968e-05
6.25727e-05
5.87219e-05
5.55785e-05
4.80622e-05
4.35629e-05
3.41578e-05
2.93073e-05
2.48066e-05
1.66087e-05
1.29646e-05
9.86854e-06
5.22341e-06
2.89379e-07
1.41814e-06
3.34924e-06
4.93221e-06
5.77581e-06
8.83769e-06
1.33e-05
1.92695e-05
2.32095e-05
3.53234e-05
6.38113e-05
0.000176334
0.000600291
0.000665775
0.000353345
0.000200424
0.000159701
0.000150146
0.000155351
0.000169612
0.000189022
0.000212608
0.000237362
0.000262798
0.00028649
0.000312246
0.000344412
0.000389798
0.000467251
0.00061353
0.000874117
0.0012869
0.00182381
0.0021695
0.00217497
0.00210491
0.00205573
0.00201511
0.00193627
0.00186802
0.00179566
0.00169179
0.00162428
0.00152131
0.00143162
0.00134154
0.00124882
0.001193
0.00109881
0.0010061
0.000958305
0.00073023
0.000521254
-0.000401074
-0.00202989
-0.00189811
-0.00132229
-0.000614752
-0.000270931
-0.000113766
-5.78064e-05
-1.6132e-07
2.3519e-05
4.72841e-05
5.97692e-05
6.37311e-05
6.55547e-05
6.45483e-05
6.06481e-05
5.65853e-05
4.94783e-05
4.41205e-05
3.55059e-05
2.97265e-05
2.45507e-05
1.72679e-05
1.3246e-05
9.87952e-06
5.48546e-06
2.29827e-07
1.14933e-06
2.92499e-06
4.75563e-06
5.66331e-06
8.78761e-06
1.36617e-05
1.63988e-05
2.41537e-05
3.69656e-05
6.59397e-05
0.00016682
0.000335516
0.000694274
0.000396486
0.000211054
0.00016304
0.000150579
0.000153927
0.000166893
0.000185414
0.000208385
0.000233477
0.000259148
0.000283412
0.000308163
0.000337973
0.000378861
0.000444988
0.000569381
0.000795627
0.00116356
0.0016617
0.00207527
0.00216957
0.00209865
0.00199494
0.00196394
0.00191843
0.00186337
0.00180507
0.00170217
0.00164431
0.00155008
0.00147206
0.00141778
0.00133292
0.00125224
0.0011649
0.00110143
0.000997979
0.000878392
0.000571765
-0.000264869
-0.00197202
-0.00199147
-0.00140564
-0.000647378
-0.000277507
-0.000174552
-6.23855e-05
3.70498e-07
2.18022e-05
4.84973e-05
6.23323e-05
6.5879e-05
6.77573e-05
6.6846e-05
6.23679e-05
5.88311e-05
5.06072e-05
4.56593e-05
3.58013e-05
3.05502e-05
2.55587e-05
1.73151e-05
1.3558e-05
1.02748e-05
5.41772e-06
-4.19507e-08
-2.26816e-07
1.12468e-06
4.21007e-06
6.14066e-06
1.15933e-05
2.05989e-05
2.69887e-05
4.36635e-05
7.43663e-05
0.000137452
0.000199316
0.000594689
0.00089109
0.000426794
0.000209151
0.000157478
0.000146807
0.00014832
0.000157811
0.000173935
0.000195186
0.000220229
0.000248619
0.000277763
0.000305832
0.000330437
0.000355498
0.00040492
0.000466549
0.000587015
0.000812971
0.00118862
0.00167482
0.00202274
0.00202466
0.00199068
0.00195299
0.00192305
0.0018664
0.0018167
0.00171059
0.00167306
0.00160075
0.0015055
0.00145708
0.00137363
0.0012987
0.0012191
0.00116978
0.00114174
0.00102746
0.000805812
0.000204462
-0.00177225
-0.00268252
-0.00163134
-0.000738007
-0.000321693
-0.000180929
-6.5467e-05
-2.27487e-06
2.16898e-05
4.82578e-05
6.24258e-05
6.61981e-05
6.81424e-05
6.7244e-05
6.27544e-05
5.92464e-05
5.0895e-05
4.60315e-05
3.59689e-05
3.07814e-05
2.58045e-05
1.73521e-05
1.36414e-05
1.04992e-05
5.43995e-06
-1.78197e-08
-8.38512e-08
9.22218e-07
4.27427e-06
6.14789e-06
1.16013e-05
2.06695e-05
2.67693e-05
4.39017e-05
7.3926e-05
9.8782e-05
0.000195327
0.000544237
0.000957658
0.000476842
0.000218842
0.000179005
0.000149517
0.000146789
0.000155376
0.000170452
0.000191422
0.000215412
0.000243454
0.000272797
0.000301331
0.000327364
0.000351512
0.000383601
0.000430055
0.000513692
0.000674863
0.000960057
0.001134
0.00159096
0.00190237
0.00195203
0.00192799
0.00190436
0.001871
0.00184881
0.00176301
0.00167809
0.00162299
0.0015233
0.00146841
0.00138556
0.00131135
0.00123213
0.00119363
0.00115764
0.00106092
0.000986161
0.000553695
-0.000292932
-0.0029101
-0.00203753
-0.000839788
-0.000484735
-0.000192579
-6.76591e-05
-3.04265e-06
2.39677e-05
5.01764e-05
6.07898e-05
6.9196e-05
7.06454e-05
6.94099e-05
6.49351e-05
6.0687e-05
5.25386e-05
4.69569e-05
3.70729e-05
3.14573e-05
2.61453e-05
1.77141e-05
1.38717e-05
1.05298e-05
5.53359e-06
-1.27375e-08
-2.11156e-08
3.96808e-07
2.56332e-06
8.26971e-06
1.5593e-05
2.31938e-05
3.84236e-05
6.36869e-05
0.000104431
0.000162019
0.000332158
0.000837258
0.00118692
0.000767682
0.000288127
0.000166504
0.000139103
0.000138602
0.000148202
0.000165354
0.000188187
0.000212069
0.000239482
0.000270022
0.000301717
0.000332065
0.000358725
0.000383299
0.000412177
0.000457378
0.000539672
0.000717711
0.0010323
0.00149267
0.00186501
0.00194817
0.0019281
0.00190106
0.00187573
0.00185149
0.00178367
0.00169617
0.00163401
0.00154621
0.00149269
0.0014217
0.00134906
0.00130121
0.00123548
0.00122236
0.00117341
0.00103406
0.000674494
-0.000148948
-0.0029009
-0.00217857
-0.000869957
-0.000520471
-0.000201736
-6.83785e-05
-2.62971e-05
2.42976e-05
5.25874e-05
6.19219e-05
7.12828e-05
7.30271e-05
7.17594e-05
6.66035e-05
6.25571e-05
5.36886e-05
4.80774e-05
3.7753e-05
3.19836e-05
2.63925e-05
1.79767e-05
1.38982e-05
1.03392e-05
5.7115e-06
3.67753e-09
8.26799e-08
7.93215e-07
1.97339e-06
6.74938e-06
1.34559e-05
1.74359e-05
2.87184e-05
5.03631e-05
6.71007e-05
0.000136073
0.000281841
0.000729465
0.00107591
0.001026
0.000348828
0.000178581
0.000139358
0.000135753
0.000145029
0.000162061
0.00018466
0.000197688
0.000223544
0.000252519
0.000283596
0.000329753
0.000357638
0.000384206
0.000415963
0.000447439
0.000502673
0.000609578
0.000813872
0.00116822
0.00160824
0.00186729
0.00190941
0.00188072
0.00187129
0.00185481
0.00181713
0.00170521
0.00164223
0.00155639
0.001499
0.00146077
0.00138641
0.00133861
0.00127209
0.00126038
0.00125535
0.00118118
0.00110654
0.000467884
-0.00335972
-0.00283094
-0.0014489
-0.00055848
-0.000216961
-7.48878e-05
-2.69315e-05
2.35084e-05
5.23521e-05
6.2005e-05
7.16259e-05
7.33934e-05
7.22646e-05
6.69699e-05
6.31297e-05
5.47333e-05
4.93322e-05
3.82211e-05
3.27212e-05
2.73768e-05
1.80822e-05
1.42061e-05
1.08222e-05
5.62567e-06
4.83541e-09
9.33737e-08
8.67573e-07
1.96284e-06
6.09119e-06
1.24441e-05
1.6373e-05
2.54726e-05
3.58782e-05
6.19869e-05
0.000110674
0.000212875
0.000395308
0.00105687
0.00151741
0.000531954
0.000215016
0.00014046
0.000125651
0.000129308
0.000145969
0.000166985
0.000192542
0.000220894
0.000248285
0.000277306
0.000313467
0.000346559
0.000378728
0.00040528
0.000430135
0.000467361
0.000540234
0.000749876
0.00107322
0.00151819
0.00183381
0.00190852
0.00188178
0.00186705
0.0018661
0.00184449
0.00173944
0.00165866
0.00160377
0.00153308
0.00148583
0.00141947
0.00134763
0.00128142
0.00126376
0.00126752
0.00123359
0.00127399
0.00102285
-0.00275201
-0.00369682
-0.00185038
-0.000613814
-0.00022562
-0.000115031
-2.38094e-05
2.60735e-05
5.29548e-05
6.52032e-05
7.41098e-05
7.58957e-05
7.44426e-05
6.90906e-05
6.47055e-05
5.53142e-05
4.96094e-05
3.86193e-05
3.29254e-05
2.75343e-05
1.82105e-05
1.42917e-05
1.08826e-05
5.6633e-06
1.64503e-07
9.38731e-08
-1.84363e-07
8.91038e-07
3.88639e-06
7.18768e-06
1.02909e-05
1.95807e-05
2.6501e-05
4.58933e-05
8.43126e-05
0.000117195
0.000241172
0.000568526
0.00123057
0.00113953
0.000758654
0.000301051
0.000175671
0.000149804
0.000152392
0.00016763
0.000190263
0.000216783
0.00024318
0.000272478
0.000308302
0.00034509
0.00038121
0.00041207
0.000436541
0.000463753
0.000509599
0.000598861
0.000773885
0.00109898
0.00154074
0.00182742
0.00189485
0.00187
0.00186246
0.00187204
0.00179706
0.0016968
0.00161883
0.00155349
0.00150244
0.00145207
0.00138303
0.00131228
0.00128907
0.00131328
0.00131158
0.0013023
0.00113879
-0.00220575
-0.00491498
-0.00201457
-0.00064318
-0.000229551
-0.000128352
-2.4439e-05
2.87255e-05
4.69414e-05
6.76039e-05
7.70991e-05
7.87486e-05
7.68366e-05
7.37226e-05
6.63191e-05
5.70702e-05
5.05241e-05
4.02939e-05
3.33978e-05
2.71707e-05
1.87186e-05
1.42667e-05
1.04909e-05
5.89223e-06
1.38104e-07
1.94762e-07
-1.20542e-07
7.23137e-07
3.61736e-06
4.9141e-06
9.26058e-06
1.82073e-05
2.45718e-05
4.17478e-05
7.60083e-05
0.00010459
0.000206229
0.000448754
0.00103782
0.00140285
0.000927633
0.000339439
0.000186484
0.000153322
0.000152295
0.000164653
0.000185925
0.000211943
0.000238298
0.00026697
0.000301945
0.000339671
0.000376897
0.000409839
0.000434851
0.000460648
0.000500844
0.00057903
0.000730918
0.00101386
0.00127872
0.0016638
0.00186306
0.00188776
0.00186898
0.00189455
0.00183944
0.00172823
0.00164377
0.00156101
0.001507
0.00146059
0.00139292
0.00134076
0.00131027
0.00133488
0.00136763
0.00141157
0.00158346
-0.000945525
-0.00642624
-0.00233223
-0.000706792
-0.000248495
-0.000130462
-2.61686e-05
2.82751e-05
4.65827e-05
6.78043e-05
7.76448e-05
8.13376e-05
7.92816e-05
7.63199e-05
6.80824e-05
5.76553e-05
5.17106e-05
4.56257e-05
3.40337e-05
2.84594e-05
1.87588e-05
1.45838e-05
1.10566e-05
5.80018e-06
5.64399e-08
8.72323e-07
1.318e-06
1.81154e-06
3.23105e-06
4.93638e-06
1.13924e-05
2.36209e-05
3.27163e-05
5.48098e-05
7.26336e-05
0.000119345
0.000197677
0.000343719
0.000494802
0.000979212
0.00106556
0.000652576
0.000325819
0.000206306
0.0001765
0.000180142
0.000194315
0.000213739
0.000238006
0.000269664
0.000304753
0.000341547
0.000380245
0.000416788
0.000447756
0.000468077
0.000497842
0.000544946
0.000644509
0.000837773
0.00119663
0.00160906
0.00184386
0.00189321
0.00187195
0.00191327
0.00187854
0.00177225
0.00167515
0.00158969
0.00151531
0.00148743
0.00143047
0.00138023
0.00131515
0.00133435
0.00137398
0.00147781
0.00181994
0.00214489
-0.00538201
-0.00267824
-0.000729314
-0.000257092
-0.000124381
-2.04682e-05
2.98674e-05
5.13469e-05
7.06914e-05
7.99265e-05
8.18043e-05
7.98414e-05
7.67184e-05
6.85067e-05
6.32242e-05
5.204e-05
4.59339e-05
3.42334e-05
2.86884e-05
1.88396e-05
1.46887e-05
8.2607e-06
5.80413e-06
1.10578e-07
6.54534e-07
1.60921e-06
3.23236e-06
5.13404e-06
1.18349e-05
1.19859e-05
2.53151e-05
3.3854e-05
5.67515e-05
7.26968e-05
0.000117831
0.000192767
0.000329505
0.00045463
0.000879716
0.00107485
0.00072954
0.000364058
0.000221215
0.000182651
0.000179029
0.000187258
0.000203236
0.000224346
0.000252656
0.000286992
0.000338561
0.000378659
0.000414715
0.00044849
0.000479382
0.000501145
0.000539172
0.000610112
0.000747462
0.0010098
0.00141027
0.00176017
0.00189934
0.00189091
0.00191307
0.00189209
0.00178869
0.00168485
0.00162307
0.00152896
0.00150255
0.00146379
0.00141391
0.00133386
0.00134808
0.00140706
0.00148266
0.0018159
0.00218584
-0.00363457
-0.00278396
-0.000707364
-0.000381598
-0.000126317
-1.85399e-05
3.62077e-05
5.54242e-05
7.47397e-05
8.30817e-05
8.48239e-05
8.26699e-05
7.853e-05
7.03544e-05
6.36674e-05
5.30896e-05
4.59916e-05
3.49134e-05
2.88224e-05
1.93765e-05
1.48753e-05
8.50326e-06
5.93215e-06
1.22431e-07
5.74272e-07
1.61603e-06
2.28343e-06
5.18734e-06
8.28459e-06
1.75794e-05
3.40581e-05
4.63533e-05
7.35734e-05
9.46423e-05
0.000137826
0.000201099
0.000300325
0.000408429
0.000644248
0.000936221
0.000867712
0.000508327
0.0003023
0.000230313
0.000212629
0.000201463
0.000205971
0.000226805
0.000257611
0.000291179
0.000325957
0.000377052
0.000415116
0.000453206
0.000479956
0.000499245
0.000533888
0.000598621
0.000722794
0.000965515
0.00123116
0.00162293
0.00185057
0.00191435
0.00193263
0.00193096
0.00183622
0.0017211
0.00163789
0.00153633
0.00150433
0.00150663
0.00145082
0.00136267
0.00135551
0.00142894
0.00152178
0.0018867
0.00273874
0.00144932
-0.0027943
-0.00075115
-0.000386903
-0.000129585
-1.91155e-05
3.75183e-05
5.89245e-05
7.85527e-05
8.65532e-05
8.76407e-05
8.50242e-05
8.14201e-05
7.20381e-05
6.59994e-05
5.40535e-05
4.72985e-05
3.5273e-05
2.91976e-05
1.95988e-05
1.49235e-05
8.67602e-06
5.97469e-06
-3.37634e-08
-8.83723e-08
1.18853e-06
4.72758e-06
8.49798e-06
1.83921e-05
2.6931e-05
4.60759e-05
6.01383e-05
9.13529e-05
0.000132327
0.000161062
0.000225557
0.000322187
0.000404761
0.0005979
0.000808954
0.000831105
0.000597923
0.000392806
0.000291771
0.000245342
0.000227069
0.000232939
0.000254067
0.000277043
0.000309379
0.000347334
0.000387692
0.000422693
0.00046115
0.000489601
0.000507088
0.000532961
0.000583163
0.000670875
0.00085534
0.00116687
0.0015697
0.0018281
0.00191891
0.00195358
0.00195898
0.00187837
0.00176241
0.00166965
0.00156136
0.00151003
0.00151137
0.00145902
0.00137269
0.00135343
0.00143377
0.00155012
0.0019666
0.00281306
0.00567042
-0.00180178
-0.000685173
-0.000339265
-0.000116645
-1.48402e-05
3.99182e-05
5.97118e-05
7.89165e-05
8.70405e-05
8.81391e-05
8.55496e-05
8.20361e-05
7.25195e-05
6.66508e-05
5.44239e-05
4.84578e-05
3.58534e-05
2.99343e-05
1.98099e-05
1.5351e-05
8.56689e-06
6.0224e-06
-6.15477e-07
-1.12579e-06
9.39501e-07
6.23964e-06
1.0436e-05
2.25232e-05
3.08205e-05
5.14789e-05
6.46022e-05
9.82292e-05
0.00014363
0.000172142
0.000243588
0.000347239
0.0005026
0.000687301
0.00078942
0.000827025
0.000620177
0.000420782
0.000310734
0.000257645
0.000234556
0.000237466
0.000257458
0.000279453
0.000311295
0.000348576
0.000396543
0.000431683
0.000469792
0.0004996
0.000515321
0.000537768
0.000576944
0.000646024
0.000784414
0.00103533
0.00141754
0.00175227
0.00191787
0.00195515
0.00196861
0.00190946
0.00180382
0.00170171
0.00158655
0.00151277
0.00152472
0.00148683
0.00140061
0.00136042
0.00143086
0.00154699
0.00196133
0.00263023
0.00645815
0.000309863
-0.000542524
-0.000312743
-0.000102799
-4.28527e-06
4.58459e-05
6.59836e-05
8.36874e-05
9.05607e-05
9.13364e-05
8.82401e-05
8.40005e-05
7.43855e-05
6.76809e-05
5.54336e-05
4.26849e-05
3.6095e-05
3.00325e-05
1.99819e-05
1.54538e-05
8.63979e-06
6.06658e-06
-5.81188e-07
-2.5247e-07
1.26013e-06
6.61247e-06
1.07846e-05
2.28147e-05
4.04346e-05
5.17205e-05
7.96845e-05
9.87299e-05
0.000144391
0.000204927
0.000246908
0.000351452
0.000503316
0.000674121
0.000781483
0.000728417
0.00064942
0.000510949
0.0003917
0.000315694
0.00027513
0.000266237
0.000280127
0.000298022
0.00032603
0.000359361
0.000396705
0.000432333
0.000470016
0.000500831
0.000516513
0.000538023
0.000575874
0.000634086
0.000745581
0.000961245
0.00127429
0.0016466
0.00190262
0.00196879
0.00199875
0.00191981
0.00181655
0.00171313
0.00161191
0.00151649
0.00153333
0.00151144
0.00142735
0.00137124
0.00142822
0.00155068
0.00192822
0.00265548
0.00575832
0.000642985
-0.000523754
-0.000317563
-8.86907e-05
6.38705e-06
5.47781e-05
7.05372e-05
8.76989e-05
9.45961e-05
9.48813e-05
9.0831e-05
8.63076e-05
7.60253e-05
6.41366e-05
5.62074e-05
4.40677e-05
3.64706e-05
2.91407e-05
2.02905e-05
1.52383e-05
9.14515e-06
6.14342e-06
-2.48117e-07
2.13682e-06
4.09031e-06
9.6562e-06
1.85046e-05
2.54071e-05
4.24379e-05
5.51625e-05
8.4512e-05
0.00012616
0.000160076
0.000230901
0.000336425
0.000483672
0.000634946
0.000714001
0.000742971
0.000702193
0.000620363
0.000513754
0.000424899
0.000361748
0.000320454
0.000318618
0.000329282
0.000339902
0.000360099
0.00038004
0.000412111
0.000449134
0.000484824
0.000511594
0.000526971
0.000545327
0.000575422
0.000630135
0.000732526
0.000896253
0.00116765
0.00152682
0.00183958
0.00197864
0.00202434
0.00195005
0.00184469
0.00174907
0.00162304
0.00151766
0.00153421
0.00150578
0.00145283
0.00139135
0.00142436
0.00155422
0.00190725
0.00319696
0.00522402
0.00136534
-0.000352605
-0.000177344
-8.5406e-05
7.13612e-06
5.54689e-05
7.11505e-05
8.83914e-05
9.53839e-05
9.81679e-05
9.33767e-05
8.90328e-05
7.79462e-05
6.4656e-05
5.74152e-05
4.37692e-05
3.70565e-05
3.07771e-05
2.0458e-05
1.58856e-05
8.84973e-06
6.20288e-06
6.29741e-07
4.0247e-06
8.02248e-06
1.19606e-05
2.01076e-05
3.29326e-05
4.53776e-05
7.08719e-05
0.000108405
0.000143424
0.000215983
0.000334345
0.000493784
0.000640792
0.000700764
0.00072152
0.000675399
0.000623828
0.000559947
0.000489864
0.000438695
0.000409962
0.000388959
0.000388089
0.000375593
0.000376354
0.000398364
0.000421397
0.000447841
0.000482055
0.000513305
0.000532308
0.00054809
0.000561159
0.000594777
0.00065109
0.000761354
0.000968038
0.00126514
0.00162182
0.00185409
0.00200301
0.00203751
0.00197085
0.00186162
0.00178023
0.00165559
0.00151925
0.00153333
0.00151391
0.00142575
0.0013959
0.00141886
0.00154733
0.00188658
0.00306663
0.0044303
0.00195238
-0.000132011
-0.000125328
-5.37989e-05
2.11895e-05
6.29613e-05
7.86185e-05
9.28811e-05
9.88079e-05
9.87641e-05
9.39515e-05
8.46974e-05
7.83667e-05
6.5028e-05
5.76952e-05
4.39556e-05
3.72385e-05
2.55738e-05
2.05453e-05
1.60249e-05
8.84554e-06
6.22329e-06
2.39401e-07
3.03507e-06
7.63024e-06
1.48968e-05
2.02498e-05
3.46688e-05
5.71582e-05
9.40145e-05
0.000122366
0.000200911
0.000331302
0.000505999
0.000645495
0.000682414
0.000686574
0.000636505
0.000583672
0.000550147
0.000503866
0.000479737
0.000460783
0.000454927
0.000450729
0.000429062
0.000413271
0.000423784
0.000440646
0.000458548
0.000484846
0.00051453
0.000530719
0.000548106
0.00056152
0.000570641
0.000600714
0.000649908
0.000741905
0.000918564
0.00117828
0.00151444
0.00183458
0.00199967
0.00203179
0.0019471
0.00184395
0.00179735
0.0016805
0.0015298
0.00152481
0.00153204
0.00144362
0.00140387
0.0014195
0.00154318
0.00187134
0.00301137
0.00395566
0.00229206
0.000108361
-5.83276e-05
7.36065e-07
3.47146e-05
7.28964e-05
9.1362e-05
9.7946e-05
0.000102682
0.000101893
9.65882e-05
8.73079e-05
7.98745e-05
6.68822e-05
5.80989e-05
4.51267e-05
3.75042e-05
2.63577e-05
2.08214e-05
1.60709e-05
9.08298e-06
6.32051e-06
1.32504e-07
2.29419e-06
6.44615e-06
1.33526e-05
2.44698e-05
4.24775e-05
5.60116e-05
9.74201e-05
0.000174355
0.000312186
0.00043802
0.000531681
0.000656561
0.000685593
0.000650518
0.000592432
0.000555574
0.000539972
0.000497896
0.000470656
0.000465511
0.000465186
0.000451033
0.000428351
0.000425488
0.00043235
0.000447328
0.000484183
0.00050649
0.0005349
0.000556161
0.000568509
0.000577475
0.000587204
0.000621501
0.000674753
0.000776454
0.000892897
0.00111999
0.00141921