/*--------------------------------*- C++ -*----------------------------------*\
  =========                 |
  \\      /  F ield         | OpenFOAM: The Open Source CFD Toolbox
   \\    /   O peration     | Website:  https://openfoam.org
    \\  /    A nd           | Version:  7
     \\/     M anipulation  |
\*---------------------------------------------------------------------------*/
FoamFile
{
    version     2.0;
    format      ascii;
    class       volSymmTensorField;
    location    "0";
    object      TauDNS;
}
// * * * * * * * * * * * * * * * * * * * * * * * * * * * * * * * * * * * * * //

dimensions      [0 2 -2 0 0 0 0];

internalField   nonuniform List<symmTensor> 
10981
(
(5.87662e-06 -1.37031e-07 0 9.04591e-08 0 3.66294e-06)
(2.24221e-05 -7.97139e-07 0 6.53856e-07 0 1.13182e-05)
(3.70628e-05 -1.51412e-06 0 1.31696e-06 0 1.6022e-05)
(6.22769e-05 -2.66383e-06 0 2.52946e-06 0 2.08415e-05)
(8.30136e-05 -3.40564e-06 0 3.63366e-06 0 2.62371e-05)
(8.87906e-05 -3.51421e-06 0 4.32332e-06 0 3.04532e-05)
(8.60674e-05 -3.23394e-06 0 5.04658e-06 0 3.5349e-05)
(7.17187e-05 -2.47822e-06 0 6.43907e-06 0 4.28323e-05)
(5.92178e-05 -1.86626e-06 0 7.79176e-06 0 4.76999e-05)
(4.80796e-05 -1.32385e-06 0 9.44755e-06 0 5.16337e-05)
(3.98297e-05 -1.031e-06 0 1.14071e-05 0 5.4236e-05)
(3.41535e-05 -1.0307e-06 0 1.3515e-05 0 5.54592e-05)
(3.05373e-05 -1.38033e-06 0 1.56542e-05 0 5.53176e-05)
(2.82918e-05 -2.03377e-06 0 1.77682e-05 0 5.40339e-05)
(2.69981e-05 -2.88224e-06 0 1.97906e-05 0 5.18713e-05)
(2.63172e-05 -3.83844e-06 0 2.16978e-05 0 4.91455e-05)
(2.60257e-05 -4.82961e-06 0 2.34685e-05 0 4.61158e-05)
(2.60024e-05 -5.81764e-06 0 2.50801e-05 0 4.30038e-05)
(2.61803e-05 -6.78604e-06 0 2.65078e-05 0 3.99588e-05)
(2.64587e-05 -7.71007e-06 0 2.77215e-05 0 3.71223e-05)
(2.68082e-05 -8.55542e-06 0 2.86895e-05 0 3.46151e-05)
(2.72111e-05 -9.30009e-06 0 2.93721e-05 0 3.2488e-05)
(2.76181e-05 -9.94763e-06 0 2.97617e-05 0 3.07324e-05)
(2.80279e-05 -1.04995e-05 0 2.98664e-05 0 2.9285e-05)
(2.842e-05 -1.09482e-05 0 2.97172e-05 0 2.80632e-05)
(2.87386e-05 -1.1299e-05 0 2.93191e-05 0 2.70944e-05)
(2.90203e-05 -1.15673e-05 0 2.86998e-05 0 2.63589e-05)
(2.92136e-05 -1.17036e-05 0 2.81378e-05 0 2.58768e-05)
(2.94592e-05 -1.18184e-05 0 2.71894e-05 0 2.51245e-05)
(2.96133e-05 -1.18541e-05 0 2.6121e-05 0 2.43304e-05)
(2.95971e-05 -1.18016e-05 0 2.50027e-05 0 2.3534e-05)
(2.94565e-05 -1.16298e-05 0 2.38724e-05 0 2.2705e-05)
(2.92161e-05 -1.13832e-05 0 2.27292e-05 0 2.18267e-05)
(2.89977e-05 -1.11721e-05 0 2.19152e-05 0 2.1197e-05)
(2.85328e-05 -1.08021e-05 0 2.07742e-05 0 2.02863e-05)
(2.79237e-05 -1.0354e-05 0 1.96372e-05 0 1.92893e-05)
(2.72383e-05 -9.86396e-06 0 1.85088e-05 0 1.8211e-05)
(2.64137e-05 -9.33544e-06 0 1.74223e-05 0 1.71937e-05)
(2.57156e-05 -8.93189e-06 0 1.66733e-05 0 1.65174e-05)
(2.45979e-05 -8.32503e-06 0 1.56474e-05 0 1.55442e-05)
(2.33718e-05 -7.69383e-06 0 1.46945e-05 0 1.45705e-05)
(2.21656e-05 -7.05895e-06 0 1.3772e-05 0 1.36286e-05)
(2.13042e-05 -6.6327e-06 0 1.31449e-05 0 1.30361e-05)
(1.99996e-05 -6.0413e-06 0 1.23005e-05 0 1.22515e-05)
(1.8654e-05 -5.44167e-06 0 1.15063e-05 0 1.15314e-05)
(1.74584e-05 -4.85986e-06 0 1.07457e-05 0 1.08984e-05)
(1.67442e-05 -4.47738e-06 0 1.02449e-05 0 1.04865e-05)
(1.57689e-05 -3.94013e-06 0 9.56263e-06 0 9.95372e-06)
(1.47742e-05 -3.40618e-06 0 8.92636e-06 0 9.45229e-06)
(1.3832e-05 -2.8982e-06 0 8.33557e-06 0 9.02133e-06)
(1.32615e-05 -2.57706e-06 0 7.9485e-06 0 8.78096e-06)
(1.25455e-05 -2.12914e-06 0 7.41032e-06 0 8.47766e-06)
(1.19343e-05 -1.69433e-06 0 6.91959e-06 0 8.23875e-06)
(1.15756e-05 -1.41074e-06 0 6.61684e-06 0 8.12229e-06)
(1.11338e-05 -9.99516e-07 0 6.20005e-06 0 7.99147e-06)
(1.07838e-05 -6.07749e-07 0 5.82822e-06 0 7.90627e-06)
(1.05916e-05 -3.66541e-07 0 5.61031e-06 0 7.87946e-06)
(1.03691e-05 -1.85452e-08 0 5.31179e-06 0 7.86962e-06)
(1.02298e-05 3.06854e-07 0 5.04641e-06 0 7.89095e-06)
(1.01866e-05 5.01377e-07 0 4.88919e-06 0 7.92141e-06)
(1.01922e-05 7.79916e-07 0 4.65913e-06 0 7.99638e-06)
(1.02341e-05 9.39518e-07 0 4.52059e-06 0 8.05904e-06)
(1.03418e-05 1.16306e-06 0 4.30894e-06 0 8.16111e-06)
(1.04272e-05 1.28237e-06 0 4.18066e-06 0 8.22479e-06)
(1.05995e-05 1.44514e-06 0 3.97197e-06 0 8.34095e-06)
(1.07269e-05 1.52711e-06 0 3.84215e-06 0 8.41289e-06)
(1.09852e-05 1.6398e-06 0 3.61311e-06 0 8.51331e-06)
(1.11753e-05 1.69362e-06 0 3.46546e-06 0 8.55835e-06)
(1.15799e-05 1.76546e-06 0 3.18949e-06 0 8.60728e-06)
(1.18738e-05 1.79795e-06 0 3.01252e-06 0 8.61901e-06)
(1.25236e-05 1.84149e-06 0 2.67417e-06 0 8.60746e-06)
(1.29871e-05 1.85894e-06 0 2.46523e-06 0 8.57585e-06)
(1.3526e-05 1.87e-06 0 2.24622e-06 0 8.517e-06)
(1.414e-05 1.8736e-06 0 2.02001e-06 0 8.42384e-06)
(1.54444e-05 1.85506e-06 0 1.59515e-06 0 8.13789e-06)
(1.62341e-05 1.82478e-06 0 1.36111e-06 0 7.89653e-06)
(1.70208e-05 1.77277e-06 0 1.13303e-06 0 7.57793e-06)
(1.77149e-05 1.69051e-06 0 9.15695e-07 0 7.16792e-06)
(1.81706e-05 1.56846e-06 0 7.1391e-07 0 6.65428e-06)
(5.12834e-06 -1.3315e-07 0 8.91854e-08 0 2.99841e-06)
(1.9812e-05 -8.7155e-07 0 6.81051e-07 0 1.02899e-05)
(4.31394e-05 -2.6279e-06 0 2.24545e-06 0 1.92216e-05)
(5.91964e-05 -4.20192e-06 0 3.71888e-06 0 2.27223e-05)
(8.06327e-05 -6.36479e-06 0 5.84098e-06 0 2.74738e-05)
(9.04089e-05 -7.42724e-06 0 6.96716e-06 0 3.06623e-05)
(9.36967e-05 -7.94003e-06 0 7.80741e-06 0 3.4037e-05)
(8.7972e-05 -7.66814e-06 0 8.70873e-06 0 3.95541e-05)
(7.87651e-05 -6.91044e-06 0 9.25064e-06 0 4.32468e-05)
(6.76206e-05 -5.88293e-06 0 9.93677e-06 0 4.66749e-05)
(5.67562e-05 -4.82145e-06 0 1.08881e-05 0 4.95089e-05)
(4.74319e-05 -3.9085e-06 0 1.21463e-05 0 5.14961e-05)
(4.01847e-05 -3.27443e-06 0 1.36614e-05 0 5.24496e-05)
(3.49851e-05 -3.01593e-06 0 1.54036e-05 0 5.23635e-05)
(3.01824e-05 -3.28477e-06 0 1.81619e-05 0 5.0458e-05)
(2.8347e-05 -3.82942e-06 0 2.00504e-05 0 4.81965e-05)
(2.72794e-05 -4.55023e-06 0 2.18768e-05 0 4.54742e-05)
(2.69399e-05 -4.98578e-06 0 2.28115e-05 0 4.39259e-05)
(2.66304e-05 -5.85152e-06 0 2.44423e-05 0 4.09401e-05)
(2.66034e-05 -6.73861e-06 0 2.59012e-05 0 3.80237e-05)
(2.67592e-05 -7.60323e-06 0 2.71368e-05 0 3.53486e-05)
(2.70565e-05 -8.40541e-06 0 2.80997e-05 0 3.29978e-05)
(2.74076e-05 -9.12284e-06 0 2.87517e-05 0 3.10263e-05)
(2.77776e-05 -9.74997e-06 0 2.90845e-05 0 2.93988e-05)
(2.81386e-05 -1.02703e-05 0 2.91272e-05 0 2.80352e-05)
(2.84459e-05 -1.06903e-05 0 2.8894e-05 0 2.69337e-05)
(2.86986e-05 -1.10283e-05 0 2.84067e-05 0 2.61102e-05)
(2.88471e-05 -1.11831e-05 0 2.8022e-05 0 2.57151e-05)
(2.9092e-05 -1.1367e-05 0 2.71748e-05 0 2.49944e-05)
(2.9251e-05 -1.14543e-05 0 2.61661e-05 0 2.42109e-05)
(2.92603e-05 -1.14612e-05 0 2.50678e-05 0 2.34243e-05)
(2.91497e-05 -1.13581e-05 0 2.39357e-05 0 2.26187e-05)
(2.88943e-05 -1.11478e-05 0 2.27863e-05 0 2.17509e-05)
(2.87147e-05 -1.09918e-05 0 2.21042e-05 0 2.12124e-05)
(2.82995e-05 -1.06603e-05 0 2.09312e-05 0 2.02955e-05)
(2.7712e-05 -1.02452e-05 0 1.97798e-05 0 1.9337e-05)
(2.70186e-05 -9.76542e-06 0 1.86433e-05 0 1.82644e-05)
(2.62155e-05 -9.24231e-06 0 1.75153e-05 0 1.72232e-05)
(2.56638e-05 -8.91483e-06 0 1.68672e-05 0 1.66506e-05)
(2.45686e-05 -8.31768e-06 0 1.57956e-05 0 1.56432e-05)
(2.33566e-05 -7.68743e-06 0 1.4803e-05 0 1.4652e-05)
(2.21131e-05 -7.03983e-06 0 1.3865e-05 0 1.36771e-05)
(2.14008e-05 -6.6753e-06 0 1.33251e-05 0 1.31573e-05)
(2.00889e-05 -6.06907e-06 0 1.24265e-05 0 1.23316e-05)
(1.87294e-05 -5.46797e-06 0 1.1594e-05 0 1.15816e-05)
(1.74764e-05 -4.87044e-06 0 1.08099e-05 0 1.09228e-05)
(1.68412e-05 -4.53986e-06 0 1.03821e-05 0 1.05717e-05)
(1.58064e-05 -3.97481e-06 0 9.66734e-06 0 1.00069e-05)
(1.47891e-05 -3.42625e-06 0 9.00111e-06 0 9.49514e-06)
(1.38206e-05 -2.9004e-06 0 8.37659e-06 0 9.0419e-06)
(1.33234e-05 -2.62128e-06 0 8.0422e-06 0 8.83171e-06)
(1.2549e-05 -2.15018e-06 0 7.47645e-06 0 8.51566e-06)
(1.19008e-05 -1.69906e-06 0 6.95767e-06 0 8.25775e-06)
(1.15902e-05 -1.45565e-06 0 6.69333e-06 0 8.14986e-06)
(1.1118e-05 -1.02152e-06 0 6.24784e-06 0 8.01032e-06)
(1.0751e-05 -6.08364e-07 0 5.85308e-06 0 7.92621e-06)
(1.05862e-05 -3.9808e-07 0 5.66222e-06 0 7.9014e-06)
(1.03464e-05 -2.95552e-08 0 5.34213e-06 0 7.88399e-06)
(1.01945e-05 3.11654e-07 0 5.05764e-06 0 7.89623e-06)
(1.01523e-05 4.79846e-07 0 4.91868e-06 0 7.91655e-06)
(1.01478e-05 7.73088e-07 0 4.67273e-06 0 7.98811e-06)
(1.01803e-05 9.13575e-07 0 4.54872e-06 0 8.04224e-06)
(1.02871e-05 1.14933e-06 0 4.31883e-06 0 8.15235e-06)
(1.03594e-05 1.25507e-06 0 4.20112e-06 0 8.21038e-06)
(1.05347e-05 1.42682e-06 0 3.97418e-06 0 8.33377e-06)
(1.0647e-05 1.50069e-06 0 3.8539e-06 0 8.39879e-06)
(1.09167e-05 1.6193e-06 0 3.60636e-06 0 8.50617e-06)
(1.10908e-05 1.66876e-06 0 3.46839e-06 0 8.54825e-06)
(1.15211e-05 1.74618e-06 0 3.1719e-06 0 8.60096e-06)
(1.17986e-05 1.77758e-06 0 3.00482e-06 0 8.61187e-06)
(1.24989e-05 1.82548e-06 0 2.64401e-06 0 8.59849e-06)
(1.2949e-05 1.84298e-06 0 2.44449e-06 0 8.56736e-06)
(1.34736e-05 1.85504e-06 0 2.23472e-06 0 8.51114e-06)
(1.40757e-05 1.86057e-06 0 2.01645e-06 0 8.42281e-06)
(1.5484e-05 1.84514e-06 0 1.56973e-06 0 8.12265e-06)
(1.62802e-05 1.8172e-06 0 1.3426e-06 0 7.88465e-06)
(1.70812e-05 1.76799e-06 0 1.12006e-06 0 7.56982e-06)
(1.78003e-05 1.68898e-06 0 9.06931e-07 0 7.16325e-06)
(1.8291e-05 1.57028e-06 0 7.08026e-07 0 6.65223e-06)
(4.55218e-06 -1.64557e-07 0 1.10487e-07 0 2.77586e-06)
(1.81363e-05 -1.08042e-06 0 7.75199e-07 0 9.81208e-06)
(3.25966e-05 -2.30497e-06 0 1.75612e-06 0 1.6119e-05)
(5.57381e-05 -4.62191e-06 0 3.96348e-06 0 2.23652e-05)
(7.72188e-05 -6.97722e-06 0 6.27755e-06 0 2.7116e-05)
(8.79053e-05 -8.19611e-06 0 7.53817e-06 0 3.02859e-05)
(9.32505e-05 -9.05925e-06 0 8.89238e-06 0 3.52933e-05)
(8.98739e-05 -8.87265e-06 0 9.47637e-06 0 3.88853e-05)
(8.2117e-05 -8.19392e-06 0 9.95622e-06 0 4.24346e-05)
(7.17828e-05 -7.15692e-06 0 1.04974e-05 0 4.57841e-05)
(5.62745e-05 -5.52445e-06 0 1.17325e-05 0 4.97225e-05)
(4.73544e-05 -4.53295e-06 0 1.2874e-05 0 5.13298e-05)
(4.03006e-05 -3.82047e-06 0 1.42706e-05 0 5.19904e-05)
(3.51924e-05 -3.48506e-06 0 1.59077e-05 0 5.16494e-05)
(3.1635e-05 -3.53336e-06 0 1.76879e-05 0 5.03825e-05)
(2.9296e-05 -3.89733e-06 0 1.95119e-05 0 4.83227e-05)
(2.7872e-05 -4.49191e-06 0 2.13203e-05 0 4.57277e-05)
(2.71011e-05 -5.23957e-06 0 2.30376e-05 0 4.28551e-05)
(2.67784e-05 -6.07197e-06 0 2.46222e-05 0 3.99061e-05)
(2.67433e-05 -6.92751e-06 0 2.60292e-05 0 3.70729e-05)
(2.69002e-05 -7.75898e-06 0 2.72079e-05 0 3.44903e-05)
(2.70445e-05 -8.19038e-06 0 2.77467e-05 0 3.3242e-05)
(2.73731e-05 -8.92035e-06 0 2.84708e-05 0 3.11976e-05)
(2.77265e-05 -9.56431e-06 0 2.88729e-05 0 2.95106e-05)
(2.80757e-05 -1.01028e-05 0 2.89731e-05 0 2.80992e-05)
(2.83804e-05 -1.05405e-05 0 2.87891e-05 0 2.69504e-05)
(2.86306e-05 -1.08954e-05 0 2.83467e-05 0 2.60875e-05)
(2.88788e-05 -1.11575e-05 0 2.76591e-05 0 2.53851e-05)
(2.90108e-05 -1.12631e-05 0 2.71891e-05 0 2.4988e-05)
(2.91752e-05 -1.13644e-05 0 2.6203e-05 0 2.42087e-05)
(2.91922e-05 -1.13834e-05 0 2.51135e-05 0 2.34224e-05)
(2.90903e-05 -1.12991e-05 0 2.39829e-05 0 2.26221e-05)
(2.88376e-05 -1.11027e-05 0 2.28353e-05 0 2.17621e-05)
(2.86621e-05 -1.09564e-05 0 2.21665e-05 0 2.12343e-05)
(2.82575e-05 -1.06348e-05 0 2.09927e-05 0 2.03161e-05)
(2.76844e-05 -1.02302e-05 0 1.98369e-05 0 1.93691e-05)
(2.69912e-05 -9.75647e-06 0 1.87012e-05 0 1.83057e-05)
(2.61954e-05 -9.23762e-06 0 1.75709e-05 0 1.72594e-05)
(2.5658e-05 -8.91521e-06 0 1.69218e-05 0 1.66899e-05)
(2.45798e-05 -8.32459e-06 0 1.58464e-05 0 1.56814e-05)
(2.33783e-05 -7.69884e-06 0 1.48461e-05 0 1.46895e-05)
(2.21314e-05 -7.05206e-06 0 1.39093e-05 0 1.37132e-05)
(2.08888e-05 -6.42863e-06 0 1.29832e-05 0 1.28277e-05)
(2.01166e-05 -6.07808e-06 0 1.24614e-05 0 1.23549e-05)
(1.87656e-05 -5.48181e-06 0 1.16253e-05 0 1.16038e-05)
(1.75091e-05 -4.88644e-06 0 1.0841e-05 0 1.09421e-05)
(1.68534e-05 -4.54711e-06 0 1.04028e-05 0 1.0584e-05)
(1.58177e-05 -3.98359e-06 0 9.6915e-06 0 1.00193e-05)
(1.48055e-05 -3.43765e-06 0 9.02623e-06 0 9.51112e-06)
(1.38428e-05 -2.9147e-06 0 8.40203e-06 0 9.05711e-06)
(1.33297e-05 -2.62607e-06 0 8.05628e-06 0 8.83858e-06)
(1.25545e-05 -2.15687e-06 0 7.49339e-06 0 8.52556e-06)
(1.19065e-05 -1.70915e-06 0 6.97607e-06 0 8.26678e-06)
(1.15843e-05 -1.45713e-06 0 6.70131e-06 0 8.15307e-06)
(1.11152e-05 -1.02655e-06 0 6.2584e-06 0 8.01392e-06)
(1.07503e-05 -6.16315e-07 0 5.86541e-06 0 7.93165e-06)
(1.05805e-05 -3.97878e-07 0 5.66695e-06 0 7.90565e-06)
(1.03427e-05 -3.28857e-08 0 5.34936e-06 0 7.88727e-06)
(1.01906e-05 3.04837e-07 0 5.06635e-06 0 7.89688e-06)
(1.01457e-05 4.78582e-07 0 4.92215e-06 0 7.91655e-06)
(1.0139e-05 7.6815e-07 0 4.67838e-06 0 7.98558e-06)
(1.01717e-05 9.12853e-07 0 4.55017e-06 0 8.04099e-06)
(1.02759e-05 1.14524e-06 0 4.32194e-06 0 8.14996e-06)
(1.03497e-05 1.25341e-06 0 4.20046e-06 0 8.21008e-06)
(1.05219e-05 1.42256e-06 0 3.97509e-06 0 8.33207e-06)
(1.06364e-05 1.49789e-06 0 3.85155e-06 0 8.3982e-06)
(1.09031e-05 1.61462e-06 0 3.6058e-06 0 8.50409e-06)
(1.10804e-05 1.66493e-06 0 3.46482e-06 0 8.547e-06)
(1.15065e-05 1.74169e-06 0 3.17094e-06 0 8.59914e-06)
(1.17893e-05 1.77377e-06 0 3.00097e-06 0 8.6102e-06)
(1.2484e-05 1.82162e-06 0 2.64371e-06 0 8.59681e-06)
(1.29402e-05 1.83955e-06 0 2.44195e-06 0 8.56517e-06)
(1.34711e-05 1.85197e-06 0 2.23035e-06 0 8.50826e-06)
(1.40805e-05 1.85778e-06 0 2.01058e-06 0 8.41883e-06)
(1.5481e-05 1.84304e-06 0 1.56872e-06 0 8.12077e-06)
(1.62845e-05 1.81522e-06 0 1.34073e-06 0 7.88121e-06)
(1.70915e-05 1.76588e-06 0 1.11773e-06 0 7.56421e-06)
(1.78126e-05 1.6865e-06 0 9.0455e-07 0 7.15525e-06)
(1.83004e-05 1.56731e-06 0 7.05906e-07 0 6.64182e-06)
(8.4909e-07 -3.97662e-07 0 2.68773e-07 0 1.56512e-06)
(7.49648e-06 -2.55848e-06 0 1.4916e-06 0 6.88853e-06)
(2.0503e-05 -5.50637e-06 0 3.50726e-06 0 1.43346e-05)
(3.88357e-05 -7.7842e-06 0 6.3037e-06 0 2.055e-05)
(5.32715e-05 -9.71503e-06 0 8.41151e-06 0 2.39372e-05)
(6.79669e-05 -1.1622e-05 0 1.04405e-05 0 2.73341e-05)
(8.55171e-05 -1.38612e-05 0 1.28081e-05 0 3.21562e-05)
(9.20628e-05 -1.46154e-05 0 1.38111e-05 0 3.53749e-05)
(9.33449e-05 -1.46545e-05 0 1.43099e-05 0 3.85251e-05)
(8.6253e-05 -1.34315e-05 0 1.4406e-05 0 4.29462e-05)
(7.72645e-05 -1.19278e-05 0 1.42501e-05 0 4.55911e-05)
(6.67854e-05 -1.01398e-05 0 1.41963e-05 0 4.7733e-05)
(5.65182e-05 -8.31335e-06 0 1.43945e-05 0 4.92283e-05)
(4.76562e-05 -6.73525e-06 0 1.5018e-05 0 4.99177e-05)
(4.06252e-05 -5.57625e-06 0 1.60269e-05 0 4.97725e-05)
(3.53993e-05 -4.89967e-06 0 1.73424e-05 0 4.87441e-05)
(3.18307e-05 -4.71047e-06 0 1.88994e-05 0 4.68847e-05)
(2.95359e-05 -4.9133e-06 0 2.05601e-05 0 4.44299e-05)
(2.818e-05 -5.41395e-06 0 2.22247e-05 0 4.16445e-05)
(2.74739e-05 -6.07812e-06 0 2.38098e-05 0 3.87672e-05)
(2.71984e-05 -6.82715e-06 0 2.52508e-05 0 3.59737e-05)
(2.71782e-05 -7.28367e-06 0 2.60136e-05 0 3.44292e-05)
(2.73318e-05 -8.04107e-06 0 2.7063e-05 0 3.20718e-05)
(2.75792e-05 -8.74313e-06 0 2.77871e-05 0 3.0111e-05)
(2.78541e-05 -9.35412e-06 0 2.8171e-05 0 2.84826e-05)
(2.81228e-05 -9.8658e-06 0 2.82344e-05 0 2.71371e-05)
(2.83634e-05 -1.02917e-05 0 2.80231e-05 0 2.60957e-05)
(2.8575e-05 -1.0628e-05 0 2.75533e-05 0 2.53338e-05)
(2.86956e-05 -1.07932e-05 0 2.7134e-05 0 2.49006e-05)
(2.88621e-05 -1.09609e-05 0 2.62883e-05 0 2.4163e-05)
(2.8911e-05 -1.10327e-05 0 2.5286e-05 0 2.34011e-05)
(2.88455e-05 -1.10224e-05 0 2.42063e-05 0 2.26479e-05)
(2.86339e-05 -1.09079e-05 0 2.31041e-05 0 2.18452e-05)
(2.84262e-05 -1.07715e-05 0 2.23612e-05 0 2.12687e-05)
(2.80513e-05 -1.0498e-05 0 2.12208e-05 0 2.03749e-05)
(2.75572e-05 -1.01482e-05 0 2.0072e-05 0 1.94812e-05)
(2.69014e-05 -9.72149e-06 0 1.89627e-05 0 1.84944e-05)
(2.61425e-05 -9.23914e-06 0 1.78757e-05 0 1.74698e-05)
(2.55803e-05 -8.88911e-06 0 1.71328e-05 0 1.68252e-05)
(2.46085e-05 -8.33986e-06 0 1.60636e-05 0 1.58412e-05)
(2.34649e-05 -7.74736e-06 0 1.50507e-05 0 1.48592e-05)
(2.22589e-05 -7.12293e-06 0 1.41257e-05 0 1.39052e-05)
(2.14515e-05 -6.69842e-06 0 1.35042e-05 0 1.32847e-05)
(2.02319e-05 -6.11263e-06 0 1.26238e-05 0 1.24605e-05)
(1.89255e-05 -5.5387e-06 0 1.17764e-05 0 1.1709e-05)
(1.76923e-05 -4.96691e-06 0 1.09938e-05 0 1.10432e-05)
(1.69176e-05 -4.57731e-06 0 1.04922e-05 0 1.06339e-05)
(1.58938e-05 -4.03121e-06 0 9.80918e-06 0 1.00853e-05)
(1.48886e-05 -3.49291e-06 0 9.1501e-06 0 9.58432e-06)
(1.3958e-05 -2.99003e-06 0 8.54296e-06 0 9.13963e-06)
(1.33739e-05 -2.65826e-06 0 8.1367e-06 0 8.87839e-06)
(1.2599e-05 -2.19543e-06 0 7.58195e-06 0 8.57508e-06)
(1.19425e-05 -1.75966e-06 0 7.07264e-06 0 8.31565e-06)
(1.15622e-05 -1.47194e-06 0 6.75132e-06 0 8.17296e-06)
(1.11035e-05 -1.06117e-06 0 6.32092e-06 0 8.02807e-06)
(1.07442e-05 -6.59853e-07 0 5.93133e-06 0 7.95456e-06)
(1.05509e-05 -4.0655e-07 0 5.69886e-06 0 7.92683e-06)
(1.03233e-05 -5.53995e-08 0 5.39101e-06 0 7.90418e-06)
(1.01731e-05 2.63957e-07 0 5.11867e-06 0 7.90296e-06)
(1.01117e-05 4.64548e-07 0 4.94835e-06 0 7.91668e-06)
(1.00925e-05 7.41506e-07 0 4.7096e-06 0 7.97267e-06)
(1.0124e-05 9.05899e-07 0 4.56007e-06 0 8.03275e-06)
(1.02136e-05 1.12272e-06 0 4.34115e-06 0 8.13365e-06)
(1.02984e-05 1.24657e-06 0 4.19424e-06 0 8.20731e-06)
(1.04473e-05 1.39913e-06 0 3.98421e-06 0 8.32111e-06)
(1.05821e-05 1.4859e-06 0 3.83421e-06 0 8.39811e-06)
(1.08198e-05 1.59002e-06 0 3.60775e-06 0 8.49321e-06)
(1.10242e-05 1.64534e-06 0 3.44423e-06 0 8.54094e-06)
(1.14115e-05 1.71612e-06 0 3.1736e-06 0 8.59025e-06)
(1.17163e-05 1.75252e-06 0 2.98846e-06 0 8.60416e-06)
(1.23259e-05 1.79663e-06 0 2.67597e-06 0 8.59401e-06)
(1.28611e-05 1.8212e-06 0 2.43619e-06 0 8.56233e-06)
(1.34282e-05 1.83637e-06 0 2.21305e-06 0 8.50454e-06)
(1.41713e-05 1.84419e-06 0 1.95628e-06 0 8.39363e-06)
(1.53869e-05 1.83618e-06 0 1.5855e-06 0 8.14263e-06)
(1.62998e-05 1.81182e-06 0 1.33447e-06 0 7.89035e-06)
(1.71791e-05 1.76603e-06 0 1.10451e-06 0 7.56812e-06)
(1.79689e-05 1.68428e-06 0 8.8488e-07 0 7.13446e-06)
(1.84963e-05 1.55671e-06 0 6.79436e-07 0 6.57997e-06)
(1.6712e-06 -1.23935e-06 0 1.00488e-06 0 2.27529e-06)
(4.12072e-06 -2.78251e-06 0 2.29107e-06 0 5.1588e-06)
(9.67474e-06 -5.6051e-06 0 5.18181e-06 0 1.15669e-05)
(1.26213e-05 -5.78113e-06 0 6.67185e-06 0 1.51208e-05)
(1.8009e-05 -6.613e-06 0 9.69163e-06 0 1.90234e-05)
(2.50016e-05 -8.2556e-06 0 1.21513e-05 0 2.12188e-05)
(3.58146e-05 -1.08919e-05 0 1.48257e-05 0 2.36555e-05)
(5.7207e-05 -1.5658e-05 0 1.83778e-05 0 2.79491e-05)
(7.22947e-05 -1.84375e-05 0 2.00894e-05 0 3.1336e-05)
(8.40024e-05 -2.01349e-05 0 2.11016e-05 0 3.48956e-05)
(9.01051e-05 -2.05679e-05 0 2.13867e-05 0 3.8443e-05)
(8.97045e-05 -1.97434e-05 0 2.0974e-05 0 4.17452e-05)
(8.39639e-05 -1.79184e-05 0 2.00548e-05 0 4.45613e-05)
(7.43588e-05 -1.53994e-05 0 1.89322e-05 0 4.66801e-05)
(6.33978e-05 -1.26348e-05 0 1.79491e-05 0 4.79959e-05)
(5.29804e-05 -1.00643e-05 0 1.74659e-05 0 4.84671e-05)
(4.4463e-05 -7.98899e-06 0 1.75812e-05 0 4.81007e-05)
(3.8106e-05 -6.58616e-06 0 1.82682e-05 0 4.68779e-05)
(3.36535e-05 -5.86449e-06 0 1.93695e-05 0 4.484e-05)
(3.0762e-05 -5.72691e-06 0 2.07394e-05 0 4.22504e-05)
(2.90319e-05 -5.99014e-06 0 2.22255e-05 0 3.94195e-05)
(2.80987e-05 -6.51133e-06 0 2.37087e-05 0 3.65378e-05)
(2.77251e-05 -7.15291e-06 0 2.50658e-05 0 3.38043e-05)
(2.77021e-05 -7.84842e-06 0 2.61735e-05 0 3.13757e-05)
(2.78236e-05 -8.51621e-06 0 2.69542e-05 0 2.93508e-05)
(2.79838e-05 -9.09394e-06 0 2.73686e-05 0 2.773e-05)
(2.81083e-05 -9.46702e-06 0 2.74677e-05 0 2.67519e-05)
(2.82988e-05 -9.90956e-06 0 2.73605e-05 0 2.56705e-05)
(2.8476e-05 -1.02628e-05 0 2.69756e-05 0 2.48814e-05)
(2.86068e-05 -1.05204e-05 0 2.6333e-05 0 2.41833e-05)
(2.86716e-05 -1.06624e-05 0 2.54838e-05 0 2.34369e-05)
(2.86333e-05 -1.07117e-05 0 2.44954e-05 0 2.27128e-05)
(2.85383e-05 -1.07064e-05 0 2.37534e-05 0 2.22012e-05)
(2.82828e-05 -1.05961e-05 0 2.26692e-05 0 2.1382e-05)
(2.7908e-05 -1.03754e-05 0 2.15434e-05 0 2.05107e-05)
(2.74579e-05 -1.00754e-05 0 2.03952e-05 0 1.96376e-05)
(2.6884e-05 -9.69593e-06 0 1.92783e-05 0 1.8718e-05)
(2.63986e-05 -9.39763e-06 0 1.85331e-05 0 1.80297e-05)
(2.55863e-05 -8.91395e-06 0 1.74565e-05 0 1.70601e-05)
(2.46849e-05 -8.3875e-06 0 1.6382e-05 0 1.60834e-05)
(2.36173e-05 -7.81978e-06 0 1.53393e-05 0 1.50951e-05)
(2.28287e-05 -7.41974e-06 0 1.46833e-05 0 1.44421e-05)
(2.16439e-05 -6.8018e-06 0 1.37613e-05 0 1.35129e-05)
(2.04327e-05 -6.19555e-06 0 1.28632e-05 0 1.26451e-05)
(1.91531e-05 -5.61755e-06 0 1.19933e-05 0 1.18648e-05)
(1.79058e-05 -5.0508e-06 0 1.11731e-05 0 1.11634e-05)
(1.71554e-05 -4.68218e-06 0 1.06758e-05 0 1.07615e-05)
(1.6062e-05 -4.1176e-06 0 9.96632e-06 0 1.01882e-05)
(1.50412e-05 -3.5747e-06 0 9.2975e-06 0 9.67692e-06)
(1.44155e-05 -3.24297e-06 0 8.89588e-06 0 9.38004e-06)
(1.34999e-05 -2.73815e-06 0 8.28548e-06 0 8.95863e-06)
(1.26966e-05 -2.26123e-06 0 7.70436e-06 0 8.63183e-06)
(1.19965e-05 -1.80833e-06 0 7.16899e-06 0 8.36694e-06)
(1.16293e-05 -1.54141e-06 0 6.86601e-06 0 8.22629e-06)
(1.11237e-05 -1.11493e-06 0 6.40761e-06 0 8.05268e-06)
(1.07336e-05 -7.00734e-07 0 5.99668e-06 0 7.96858e-06)
(1.05553e-05 -4.67455e-07 0 5.77739e-06 0 7.9465e-06)
(1.03167e-05 -9.60471e-08 0 5.44579e-06 0 7.92308e-06)
(1.02107e-05 1.05132e-07 0 5.27318e-06 0 7.91421e-06)
(1.00916e-05 4.27777e-07 0 4.99626e-06 0 7.91992e-06)
(1.00588e-05 7.15586e-07 0 4.74136e-06 0 7.96981e-06)
(1.00754e-05 8.61438e-07 0 4.60463e-06 0 8.01621e-06)
(1.01587e-05 1.09136e-06 0 4.36531e-06 0 8.11598e-06)
(1.02258e-05 1.20006e-06 0 4.23532e-06 0 8.17897e-06)
(1.03813e-05 1.36835e-06 0 3.99858e-06 0 8.30521e-06)
(1.0489e-05 1.44486e-06 0 3.86806e-06 0 8.37188e-06)
(1.07485e-05 1.56176e-06 0 3.61187e-06 0 8.47807e-06)
(1.09245e-05 1.6126e-06 0 3.46516e-06 0 8.52311e-06)
(1.13503e-05 1.69274e-06 0 3.16349e-06 0 8.58069e-06)
(1.16377e-05 1.72773e-06 0 2.99025e-06 0 8.59406e-06)
(1.19793e-05 1.75768e-06 0 2.80713e-06 0 8.59459e-06)
(1.28232e-05 1.80245e-06 0 2.42506e-06 0 8.55244e-06)
(1.33743e-05 1.81889e-06 0 2.21278e-06 0 8.49814e-06)
(1.40123e-05 1.82947e-06 0 1.99293e-06 0 8.41092e-06)
(1.55043e-05 1.82511e-06 0 1.55095e-06 0 8.10978e-06)
(1.63658e-05 1.80267e-06 0 1.32395e-06 0 7.86651e-06)
(1.7235e-05 1.75828e-06 0 1.10247e-06 0 7.54486e-06)
(1.80182e-05 1.68289e-06 0 8.91043e-07 0 7.12995e-06)
(1.85635e-05 1.5664e-06 0 6.94433e-07 0 6.60927e-06)
(2.46023e-07 -2.39866e-07 0 2.6684e-07 0 4.8721e-07)
(2.47911e-06 -1.77301e-06 0 1.47751e-06 0 3.35871e-06)
(5.60251e-06 -3.61619e-06 0 3.0828e-06 0 6.85031e-06)
(1.09384e-05 -5.73541e-06 0 5.7986e-06 0 1.30454e-05)
(1.39211e-05 -5.83621e-06 0 7.29974e-06 0 1.61277e-05)
(1.13653e-05 -5.2688e-06 0 9.22337e-06 0 1.71806e-05)
(1.45083e-05 -5.77182e-06 0 1.12311e-05 0 1.9066e-05)
(1.9579e-05 -6.94665e-06 0 1.36988e-05 0 2.10762e-05)
(3.03151e-05 -9.92522e-06 0 1.79134e-05 0 2.43784e-05)
(4.0202e-05 -1.28931e-05 0 2.0916e-05 0 2.69681e-05)
(5.14245e-05 -1.63069e-05 0 2.36386e-05 0 2.98408e-05)
(6.32782e-05 -1.96322e-05 0 2.57269e-05 0 3.30319e-05)
(7.38588e-05 -2.209e-05 0 2.69165e-05 0 3.63531e-05)
(8.06746e-05 -2.30208e-05 0 2.70893e-05 0 3.96464e-05)
(8.19728e-05 -2.23182e-05 0 2.63458e-05 0 4.27002e-05)
(7.80501e-05 -2.03162e-05 0 2.49064e-05 0 4.51374e-05)
(7.02044e-05 -1.74724e-05 0 2.31939e-05 0 4.66332e-05)
(6.05865e-05 -1.436e-05 0 2.16336e-05 0 4.72494e-05)
(5.10564e-05 -1.14729e-05 0 2.05504e-05 0 4.68798e-05)
(4.30693e-05 -9.18283e-06 0 2.01508e-05 0 4.55425e-05)
(3.70745e-05 -7.65913e-06 0 2.0423e-05 0 4.34542e-05)
(3.29816e-05 -6.91572e-06 0 2.12401e-05 0 4.0768e-05)
(3.04309e-05 -6.7967e-06 0 2.23999e-05 0 3.77782e-05)
(2.90553e-05 -7.07105e-06 0 2.36805e-05 0 3.47873e-05)
(2.84112e-05 -7.57472e-06 0 2.48913e-05 0 3.20215e-05)
(2.82064e-05 -8.17007e-06 0 2.58388e-05 0 2.96344e-05)
(2.81987e-05 -8.75111e-06 0 2.64291e-05 0 2.76838e-05)
(2.82589e-05 -9.27521e-06 0 2.6675e-05 0 2.6149e-05)
(2.83212e-05 -9.54685e-06 0 2.66893e-05 0 2.5492e-05)
(2.84433e-05 -9.93473e-06 0 2.64191e-05 0 2.45561e-05)
(2.8535e-05 -1.02167e-05 0 2.58382e-05 0 2.37947e-05)
(2.85357e-05 -1.03845e-05 0 2.50299e-05 0 2.30553e-05)
(2.84248e-05 -1.04441e-05 0 2.40654e-05 0 2.23143e-05)
(2.81912e-05 -1.04041e-05 0 2.29983e-05 0 2.15127e-05)
(2.80108e-05 -1.03408e-05 0 2.23761e-05 0 2.10353e-05)
(2.75966e-05 -1.01271e-05 0 2.12193e-05 0 2.01609e-05)
(2.70923e-05 -9.81622e-06 0 2.00438e-05 0 1.92779e-05)
(2.64698e-05 -9.4171e-06 0 1.88943e-05 0 1.83107e-05)
(2.56663e-05 -8.94721e-06 0 1.77776e-05 0 1.73135e-05)
(2.47712e-05 -8.43362e-06 0 1.66796e-05 0 1.63192e-05)
(2.42226e-05 -8.12841e-06 0 1.60768e-05 0 1.57541e-05)
(2.30893e-05 -7.54637e-06 0 1.50304e-05 0 1.47451e-05)
(2.188e-05 -6.92494e-06 0 1.40417e-05 0 1.37602e-05)
(2.05263e-05 -6.24018e-06 0 1.29471e-05 0 1.27225e-05)
(1.98055e-05 -5.90551e-06 0 1.24431e-05 0 1.22585e-05)
(1.84904e-05 -5.31883e-06 0 1.15723e-05 0 1.1492e-05)
(1.72696e-05 -4.73556e-06 0 1.07588e-05 0 1.08228e-05)
(1.61365e-05 -4.15495e-06 0 1.00203e-05 0 1.02275e-05)
(1.55451e-05 -3.8422e-06 0 9.63389e-06 0 9.92507e-06)
(1.45186e-05 -3.29659e-06 0 8.96793e-06 0 9.43019e-06)
(1.35635e-05 -2.77415e-06 0 8.33671e-06 0 8.99092e-06)
(1.27279e-05 -2.28169e-06 0 7.73743e-06 0 8.6462e-06)
(1.23185e-05 -2.02474e-06 0 7.42958e-06 0 8.49222e-06)
(1.16644e-05 -1.57017e-06 0 6.90559e-06 0 8.24456e-06)
(1.11367e-05 -1.13135e-06 0 6.43061e-06 0 8.05915e-06)
(1.09031e-05 -9.00636e-07 0 6.19587e-06 0 8.00055e-06)
(1.05628e-05 -4.89069e-07 0 5.80148e-06 0 7.94965e-06)
(1.0317e-05 -1.0692e-07 0 5.45828e-06 0 7.92599e-06)
(1.02151e-05 8.41437e-08 0 5.29377e-06 0 7.9169e-06)
(1.00887e-05 4.16338e-07 0 5.00911e-06 0 7.91967e-06)
(1.00527e-05 7.1121e-07 0 4.74733e-06 0 7.96922e-06)
(1.00665e-05 8.50853e-07 0 4.61594e-06 0 8.01284e-06)
(1.01488e-05 1.08581e-06 0 4.37049e-06 0 8.11292e-06)
(1.02131e-05 1.19117e-06 0 4.24414e-06 0 8.17343e-06)
(1.03695e-05 1.36289e-06 0 4.00214e-06 0 8.30197e-06)
(1.04735e-05 1.43775e-06 0 3.87444e-06 0 8.36716e-06)
(1.07352e-05 1.55698e-06 0 3.61366e-06 0 8.47573e-06)
(1.0907e-05 1.60712e-06 0 3.46948e-06 0 8.5204e-06)
(1.1337e-05 1.68888e-06 0 3.16339e-06 0 8.57959e-06)
(1.16207e-05 1.72359e-06 0 2.99227e-06 0 8.59281e-06)
(1.19579e-05 1.75359e-06 0 2.81106e-06 0 8.59372e-06)
(1.28123e-05 1.79961e-06 0 2.42451e-06 0 8.55192e-06)
(1.33606e-05 1.81633e-06 0 2.21381e-06 0 8.49869e-06)
(1.39964e-05 1.82739e-06 0 1.99519e-06 0 8.41303e-06)
(1.551e-05 1.82419e-06 0 1.54901e-06 0 8.10974e-06)
(1.63744e-05 1.80245e-06 0 1.32285e-06 0 7.86724e-06)
(1.72485e-05 1.75885e-06 0 1.10197e-06 0 7.54665e-06)
(1.80397e-05 1.68427e-06 0 8.90845e-07 0 7.13271e-06)
(1.8596e-05 1.56853e-06 0 6.94342e-07 0 6.61274e-06)
(4.77781e-07 -4.77306e-07 0 5.47696e-07 0 9.83044e-07)
(2.41565e-06 -2.04172e-06 0 2.09301e-06 0 3.80156e-06)
(4.65094e-06 -3.55987e-06 0 3.68031e-06 0 6.99356e-06)
(6.92857e-06 -5.05269e-06 0 5.47386e-06 0 1.0786e-05)
(7.84347e-06 -5.14932e-06 0 6.67487e-06 0 1.33553e-05)
(8.71846e-06 -4.92585e-06 0 7.98173e-06 0 1.55014e-05)
(1.05099e-05 -4.70297e-06 0 1.03964e-05 0 1.81241e-05)
(1.30839e-05 -5.22228e-06 0 1.27801e-05 0 1.99745e-05)
(1.74605e-05 -6.58993e-06 0 1.57106e-05 0 2.19694e-05)
(2.44914e-05 -9.14566e-06 0 1.91132e-05 0 2.41969e-05)
(3.4803e-05 -1.28819e-05 0 2.26174e-05 0 2.67234e-05)
(4.83496e-05 -1.73327e-05 0 2.57086e-05 0 2.96644e-05)
(6.34903e-05 -2.1488e-05 0 2.78951e-05 0 3.29746e-05)
(7.7061e-05 -2.42518e-05 0 2.89093e-05 0 3.64739e-05)
(8.50172e-05 -2.48917e-05 0 2.86651e-05 0 3.99967e-05)
(8.57563e-05 -2.3598e-05 0 2.73528e-05 0 4.31945e-05)
(8.00913e-05 -2.09153e-05 0 2.53437e-05 0 4.55567e-05)
(7.03078e-05 -1.74939e-05 0 2.31853e-05 0 4.68911e-05)
(5.92715e-05 -1.40056e-05 0 2.13662e-05 0 4.72941e-05)
(4.92036e-05 -1.09678e-05 0 2.02513e-05 0 4.66463e-05)
(4.13399e-05 -8.69801e-06 0 1.99546e-05 0 4.50894e-05)
(3.57461e-05 -7.32283e-06 0 2.03851e-05 0 4.27859e-05)
(3.20695e-05 -6.76596e-06 0 2.13495e-05 0 3.99101e-05)
(2.99052e-05 -6.79051e-06 0 2.25969e-05 0 3.68433e-05)
(2.87974e-05 -7.15783e-06 0 2.39183e-05 0 3.38487e-05)
(2.8319e-05 -7.70909e-06 0 2.50965e-05 0 3.11601e-05)
(2.82066e-05 -8.31472e-06 0 2.59533e-05 0 2.8889e-05)
(2.82183e-05 -8.88081e-06 0 2.64457e-05 0 2.70712e-05)
(2.82855e-05 -9.38392e-06 0 2.66024e-05 0 2.56715e-05)
(2.8405e-05 -9.7963e-06 0 2.64295e-05 0 2.46754e-05)
(2.85032e-05 -1.0101e-05 0 2.59372e-05 0 2.39102e-05)
(2.85241e-05 -1.02576e-05 0 2.54539e-05 0 2.34272e-05)
(2.84715e-05 -1.03777e-05 0 2.4599e-05 0 2.26895e-05)
(2.83027e-05 -1.03965e-05 0 2.3601e-05 0 2.19501e-05)
(2.80183e-05 -1.03211e-05 0 2.2517e-05 0 2.11172e-05)
(2.76237e-05 -1.01312e-05 0 2.13858e-05 0 2.0267e-05)
(2.71375e-05 -9.84409e-06 0 2.02404e-05 0 1.94113e-05)
(2.67649e-05 -9.59763e-06 0 1.94525e-05 0 1.8786e-05)
(2.60674e-05 -9.17409e-06 0 1.8351e-05 0 1.78158e-05)
(2.52277e-05 -8.69396e-06 0 1.72632e-05 0 1.68495e-05)
(2.42996e-05 -8.17099e-06 0 1.61974e-05 0 1.58564e-05)
(2.32188e-05 -7.6089e-06 0 1.51727e-05 0 1.4877e-05)
(2.20628e-05 -7.02048e-06 0 1.42076e-05 0 1.39157e-05)
(2.12466e-05 -6.59687e-06 0 1.35628e-05 0 1.32925e-05)
(2.00188e-05 -5.99483e-06 0 1.26695e-05 0 1.24389e-05)
(1.87385e-05 -5.4135e-06 0 1.18025e-05 0 1.16572e-05)
(1.75501e-05 -4.8541e-06 0 1.09845e-05 0 1.09786e-05)
(1.6783e-05 -4.47525e-06 0 1.04705e-05 0 1.05692e-05)
(1.57076e-05 -3.9234e-06 0 9.77757e-06 0 1.00119e-05)
(1.4699e-05 -3.38733e-06 0 9.11714e-06 0 9.5249e-06)
(1.37574e-05 -2.87983e-06 0 8.49981e-06 0 9.09414e-06)
(1.31762e-05 -2.55206e-06 0 8.1052e-06 0 8.84152e-06)
(1.24051e-05 -2.08786e-06 0 7.54564e-06 0 8.54115e-06)
(1.1747e-05 -1.64152e-06 0 7.02525e-06 0 8.29863e-06)
(1.13794e-05 -1.3564e-06 0 6.70526e-06 0 8.15853e-06)
(1.09164e-05 -9.47028e-07 0 6.26922e-06 0 8.01703e-06)
(1.05688e-05 -5.4982e-07 0 5.8797e-06 0 7.96316e-06)
(1.0402e-05 -3.0308e-07 0 5.65095e-06 0 7.94811e-06)
(1.02032e-05 4.68977e-08 0 5.34071e-06 0 7.92835e-06)
(1.00728e-05 3.69425e-07 0 5.06417e-06 0 7.92261e-06)
(1.00334e-05 5.57364e-07 0 4.89855e-06 0 7.9411e-06)
(1.00274e-05 8.17917e-07 0 4.6531e-06 0 8.00485e-06)
(1.00911e-05 1.04092e-06 0 4.41454e-06 0 8.09211e-06)
(1.01597e-05 1.16226e-06 0 4.26586e-06 0 8.15869e-06)
(1.03011e-05 1.3252e-06 0 4.0317e-06 0 8.2784e-06)