/*--------------------------------*- C++ -*----------------------------------*\
  =========                 |
  \\      /  F ield         | OpenFOAM: The Open Source CFD Toolbox
   \\    /   O peration     | Website:  https://openfoam.org
    \\  /    A nd           | Version:  7
     \\/     M anipulation  |
\*---------------------------------------------------------------------------*/
FoamFile
{
    version     2.0;
    format      ascii;
    class       volVectorField;
    location    "0";
    object      UDNS;
}
// * * * * * * * * * * * * * * * * * * * * * * * * * * * * * * * * * * * * * //

dimensions      [0 1 -1 0 0 0 0];

internalField   nonuniform List<vector> 
10981
(
(0.000495887 1.22887e-06 5.94002e-06)
(0.00221939 1.32119e-05 1.46139e-05)
(0.00402673 3.20834e-05 1.89831e-05)
(0.00791674 8.48782e-05 2.28635e-05)
(0.0127359 0.000239895 2.56204e-05)
(0.0162282 0.0004067 2.5636e-05)
(0.0195175 0.000629166 2.25051e-05)
(0.0234178 0.000991184 1.44399e-05)
(0.0253495 0.00123773 7.57603e-06)
(0.0266825 0.00144897 -1.23421e-06)
(0.0275114 0.00161784 -1.22651e-05)
(0.0279892 0.00174877 -2.40137e-05)
(0.0282329 0.00184743 -3.37143e-05)
(0.0283352 0.0019228 -3.88847e-05)
(0.0283527 0.00198095 -3.85571e-05)
(0.0283241 0.00202732 -3.35899e-05)
(0.0282701 0.00206487 -2.48306e-05)
(0.0282016 0.00209527 -1.19967e-05)
(0.0281237 0.00211802 5.4911e-06)
(0.0280406 0.00213305 2.45248e-05)
(0.0279612 0.00214167 3.93418e-05)
(0.0278889 0.00214316 4.8348e-05)
(0.0278234 0.00213757 5.35682e-05)
(0.0277619 0.00212331 5.44473e-05)
(0.0277143 0.00210075 5.19594e-05)
(0.0276836 0.00206976 4.68268e-05)
(0.0276747 0.00203265 4.15163e-05)
(0.0276832 0.00200368 3.74815e-05)
(0.0277094 0.00195624 3.12123e-05)
(0.027748 0.00190198 2.08313e-05)
(0.027799 0.00184208 5.76628e-06)
(0.0278712 0.00177932 -8.40971e-06)
(0.0279693 0.00171587 -1.80467e-05)
(0.0280512 0.00167092 -1.89008e-05)
(0.028187 0.00160737 -1.0869e-05)
(0.0283399 0.00154229 4.33098e-06)
(0.0285044 0.00147563 2.54177e-05)
(0.0286778 0.00141029 4.90256e-05)
(0.0288007 0.00136557 6.59771e-05)
(0.0289769 0.00130375 8.5624e-05)
(0.0291498 0.00124168 9.77351e-05)
(0.0293154 0.00117982 0.000105534)
(0.0294279 0.00113751 0.000109722)
(0.0295818 0.00107875 0.00011602)
(0.0297259 0.00101965 0.000121434)
(0.0298579 0.000961768 0.000127124)
(0.0299382 0.000922459 0.000131788)
(0.0300348 0.000867629 0.000140324)
(0.0301144 0.000813312 0.000149713)
(0.0301731 0.000760806 0.000155403)
(0.0302007 0.000726402 0.000156)
(0.0302225 0.000677597 0.000154049)
(0.0302188 0.00062992 0.000148226)
(0.0302 0.000598844 0.000142231)
(0.0301438 0.000554161 0.000131863)
(0.0300532 0.000510548 0.00012092)
(0.0299764 0.00048263 0.000113471)
(0.0298356 0.000441563 0.000102758)
(0.029668 0.000401658 9.41269e-05)
(0.0295476 0.000376692 8.96725e-05)
(0.0293437 0.00033899 8.40975e-05)
(0.0292045 0.00031585 8.07637e-05)
(0.0289679 0.000280475 7.52562e-05)
(0.028812 0.000259204 7.20549e-05)
(0.0285437 0.000225981 6.70087e-05)
(0.0283717 0.000206484 6.38601e-05)
(0.0280676 0.00017549 5.92158e-05)
(0.0278743 0.000157796 5.72859e-05)
(0.0275151 0.000129168 5.56823e-05)
(0.0272823 0.000113357 5.56544e-05)
(0.0268174 8.75491e-05 5.69264e-05)
(0.0265076 7.39672e-05 5.80811e-05)
(0.0261541 6.12856e-05 5.92192e-05)
(0.025747 4.95805e-05 6.0081e-05)
(0.0248119 3.07208e-05 6.02543e-05)
(0.0241538 2.18427e-05 5.93531e-05)
(0.0233582 1.41649e-05 5.77439e-05)
(0.0223883 7.78349e-06 5.54718e-05)
(0.0212022 2.74971e-06 5.25169e-05)
(0.000365428 -6.78431e-06 5.55718e-06)
(0.001791 -3.53292e-05 1.50701e-05)
(0.00430041 -8.84781e-05 2.23482e-05)
(0.00666286 -0.000122615 2.55603e-05)
(0.0108116 -0.000127325 3.10332e-05)
(0.0138189 -9.1076e-05 3.43902e-05)
(0.0167839 -1.10244e-05 3.47055e-05)
(0.0207986 0.000195595 2.71419e-05)
(0.0230113 0.000370556 1.88214e-05)
(0.024763 0.000557434 8.95838e-06)
(0.0260408 0.000738862 -2.22612e-06)
(0.0269175 0.000905032 -1.43258e-05)
(0.02747 0.00104696 -2.59517e-05)
(0.0277921 0.00116831 -3.48602e-05)
(0.0280086 0.00130973 -3.92679e-05)
(0.0280531 0.00138847 -3.50829e-05)
(0.0280522 0.00145615 -2.56614e-05)
(0.0280409 0.0014914 -1.86705e-05)
(0.0280039 0.00154581 -2.91563e-06)
(0.0279537 0.00159125 1.38821e-05)
(0.0279007 0.00162913 2.8307e-05)
(0.0278522 0.00166053 3.85187e-05)
(0.0278077 0.00168398 4.61357e-05)
(0.0277671 0.00169883 5.0566e-05)
(0.0277371 0.00170485 5.05205e-05)
(0.0277214 0.00170178 4.67156e-05)
(0.0277243 0.00169116 4.19153e-05)
(0.0277365 0.0016841 3.90906e-05)
(0.0277748 0.00166155 3.44287e-05)
(0.0278248 0.00163043 2.66707e-05)
(0.0278828 0.00159205 1.16967e-05)
(0.027957 0.00154849 -3.73507e-06)
(0.0280574 0.00150174 -1.53642e-05)
(0.0281271 0.00147479 -1.76867e-05)
(0.0282655 0.00142457 -1.16861e-05)
(0.0284212 0.00137271 3.2298e-06)
(0.028589 0.00131902 2.33007e-05)
(0.0287666 0.00126438 4.75185e-05)
(0.0288711 0.00123338 6.25803e-05)
(0.0290516 0.00117934 8.42184e-05)
(0.0292285 0.00112542 9.70373e-05)
(0.0293987 0.0010712 0.000105716)
(0.0294951 0.00104029 0.000109376)
(0.0296576 0.000986436 0.000115892)
(0.0298069 0.000932417 0.000121336)
(0.0299423 0.000879229 0.000126811)
(0.0300123 0.000849509 0.000130524)
(0.0301164 0.000797506 0.000139034)
(0.0301993 0.000746311 0.000148604)
(0.0302604 0.000696643 0.000154652)
(0.0302844 0.000669741 0.000155345)
(0.0303092 0.000622751 0.000153301)
(0.0303067 0.00057713 0.000147628)
(0.030292 0.000552734 0.000142964)
(0.0302371 0.000509373 0.000132303)
(0.0301446 0.00046721 0.000120463)
(0.0300801 0.00044501 0.000113913)
(0.029936 0.000404739 0.000102841)
(0.0297618 0.000365597 9.444e-05)
(0.0296586 0.00034535 9.07024e-05)
(0.0294466 0.000308074 8.45345e-05)
(0.0293259 0.000289029 8.13694e-05)
(0.0290788 0.000253749 7.53677e-05)
(0.0289415 0.000235934 7.25624e-05)
(0.0286607 0.000202717 6.72923e-05)
(0.0285065 0.00018613 6.44267e-05)
(0.0281873 0.000155151 5.95738e-05)
(0.0280108 0.000139868 5.79039e-05)
(0.0276323 0.000111325 5.63335e-05)
(0.0274155 9.75118e-05 5.62481e-05)
(0.0269224 7.21194e-05 5.72846e-05)
(0.0266259 6.01964e-05 5.82002e-05)
(0.0262863 4.90066e-05 5.9141e-05)
(0.0258928 3.86115e-05 5.98992e-05)
(0.0249007 2.06243e-05 6.0064e-05)
(0.0242501 1.29883e-05 5.9169e-05)
(0.0234613 6.48485e-06 5.75767e-05)
(0.0224969 1.17067e-06 5.53231e-05)
(0.0213139 -2.79877e-06 5.23962e-05)
(0.000313098 -8.45525e-06 4.96054e-06)
(0.00159809 -4.31015e-05 1.37746e-05)
(0.00304272 -8.42399e-05 1.88667e-05)
(0.00623969 -0.000149733 2.41921e-05)
(0.0102379 -0.000178768 2.99103e-05)
(0.0131583 -0.00016104 3.36683e-05)
(0.0174378 -5.9941e-05 3.38571e-05)
(0.0200753 6.41327e-05 2.89689e-05)
(0.0223474 0.000219509 2.12325e-05)
(0.0241931 0.0003952 1.16716e-05)
(0.0260912 0.000650403 -4.83992e-06)
(0.0269065 0.000810243 -1.69309e-05)
(0.0274213 0.000948291 -2.77631e-05)
(0.0277278 0.00106891 -3.56871e-05)
(0.0278919 0.00117041 -3.89822e-05)
(0.0279675 0.00125692 -3.60756e-05)
(0.0279881 0.00133129 -2.74723e-05)
(0.027976 0.00139572 -1.37902e-05)
(0.0279437 0.00145132 2.42692e-06)
(0.0278996 0.00149834 1.80699e-05)
(0.0278552 0.00153812 3.06388e-05)
(0.0278357 0.00156388 3.59267e-05)
(0.0277959 0.00159184 4.40111e-05)
(0.0277604 0.00161142 4.92794e-05)
(0.0277343 0.00162204 5.00855e-05)
(0.0277223 0.00162383 4.66411e-05)
(0.0277278 0.00161804 4.19849e-05)
(0.0277569 0.00160499 3.74818e-05)
(0.0277813 0.00159917 3.51128e-05)
(0.0278347 0.00157228 2.81881e-05)
(0.027895 0.00153788 1.36359e-05)
(0.0279699 0.00149809 -2.19726e-06)
(0.0280703 0.00145502 -1.42749e-05)
(0.0281385 0.00143242 -1.70871e-05)
(0.0282769 0.00138457 -1.2047e-05)
(0.0284333 0.00133523 2.54854e-06)
(0.0286016 0.00128437 2.22506e-05)
(0.0287794 0.00123265 4.63443e-05)
(0.0288834 0.00120404 6.14353e-05)
(0.0290641 0.0011517 8.36197e-05)
(0.0292417 0.00109976 9.66158e-05)
(0.0294122 0.00104773 0.00010561)
(0.0295783 0.000995778 0.000112)
(0.0296724 0.00096584 0.000115816)
(0.0298222 0.000913432 0.000121269)
(0.0299573 0.000861874 0.000126625)
(0.0300288 0.000832728 0.000130364)
(0.0301335 0.000782005 0.000138722)
(0.0302163 0.000732149 0.000148272)
(0.0302774 0.000683962 0.000154371)
(0.0303022 0.000656894 0.000155176)
(0.0303272 0.000611097 0.00015314)
(0.0303252 0.000566753 0.000147632)
(0.03031 0.000542079 0.000142911)
(0.0302561 0.000499898 0.000132406)
(0.0301652 0.000458938 0.000120589)
(0.0300986 0.000436379 0.000113779)
(0.0299565 0.000397218 0.00010288)
(0.0297849 0.000359143 9.46927e-05)
(0.0296786 0.000338533 9.08605e-05)
(0.0294696 0.000302267 8.46939e-05)
(0.0293454 0.000282925 8.13743e-05)
(0.0291018 0.000248574 7.54218e-05)
(0.028961 0.000230535 7.25553e-05)
(0.0286841 0.000198186 6.73536e-05)
(0.0285266 0.000181461 6.44286e-05)
(0.0282116 0.000151281 5.96787e-05)
(0.028032 0.000135926 5.80034e-05)
(0.027658 0.000108109 5.64857e-05)
(0.0274378 9.42857e-05 5.63931e-05)
(0.0269499 6.95376e-05 5.73379e-05)
(0.0266498 5.76667e-05 5.82148e-05)
(0.0263066 4.65666e-05 5.91246e-05)
(0.0259089 3.6288e-05 5.98595e-05)
(0.0249234 1.88649e-05 6.00049e-05)
(0.0242678 1.1382e-05 5.91124e-05)
(0.0234731 5.05393e-06 5.75159e-05)
(0.0225023 -7.64173e-08 5.52498e-05)
(0.0213121 -3.83988e-06 5.23088e-05)
(-2.22667e-05 -1.05686e-05 1.07515e-06)
(0.000385233 -5.73768e-05 4.00453e-06)
(0.00187877 -0.000144421 8.55087e-06)
(0.00460775 -0.000262771 1.44786e-05)
(0.00688241 -0.000347476 1.89883e-05)
(0.00941266 -0.000416193 2.4129e-05)
(0.0133777 -0.000486791 3.18877e-05)
(0.0160662 -0.000480992 3.4104e-05)
(0.0186217 -0.000429141 3.1157e-05)
(0.0218654 -0.000260356 2.03391e-05)
(0.0236525 -0.000105055 1.09587e-05)
(0.025036 6.63245e-05 -2.62442e-08)
(0.0260465 0.000239062 -1.14273e-05)
(0.026747 0.000404628 -2.34996e-05)
(0.0271915 0.000551526 -3.40298e-05)
(0.0274621 0.000679877 -3.79795e-05)
(0.0276175 0.000790969 -3.46833e-05)
(0.0276987 0.000887916 -2.39554e-05)
(0.0277332 0.000971949 -9.43153e-06)
(0.0277383 0.00104504 4.67327e-06)
(0.0277303 0.00110866 1.74825e-05)
(0.0277254 0.00114513 2.40103e-05)
(0.0277119 0.00119518 3.38163e-05)
(0.0277015 0.00123756 4.22208e-05)
(0.0276964 0.00127026 4.67908e-05)
(0.027702 0.00129438 4.54338e-05)
(0.0277201 0.0013102 4.20569e-05)
(0.0277569 0.00131773 3.97843e-05)
(0.027792 0.00132102 3.78461e-05)
(0.0278595 0.00131565 3.34757e-05)
(0.0279304 0.00130147 2.18023e-05)
(0.0280093 0.00127987 5.1975e-06)
(0.0281077 0.00125306 -8.05221e-06)
(0.028186 0.00123477 -1.34457e-05)
(0.0283223 0.00120172 -1.23138e-05)
(0.0284774 0.00116599 -1.20016e-07)
(0.0286444 0.00112832 1.7613e-05)
(0.0288185 0.0010893 3.96522e-05)
(0.028939 0.00106284 5.71067e-05)
(0.0291172 0.00102159 8.07022e-05)
(0.0292946 0.000979696 9.47347e-05)
(0.0294637 0.000937387 0.000104541)
(0.0295765 0.000908502 0.000109352)
(0.0297373 0.000865494 0.000115555)
(0.029889 0.000821221 0.000121029)
(0.0300226 0.000776845 0.000125835)
(0.0301066 0.000747224 0.000129697)
(0.0302117 0.000704557 0.00013707)
(0.0302958 0.000660612 0.000146956)
(0.0303569 0.000618861 0.000153053)
(0.0303874 0.000590997 0.000154332)
(0.0304145 0.000550968 0.00015264)
(0.030416 0.000511861 0.000147491)
(0.0304008 0.000486147 0.000142623)
(0.0303536 0.000449864 0.000133056)
(0.0302698 0.000413912 0.000121387)
(0.0301965 0.000390367 0.000113409)
(0.0300658 0.000356425 0.000103061)
(0.0299086 0.000323521 9.5898e-05)
(0.0297901 0.000301725 9.17948e-05)
(0.0295931 0.000269649 8.57058e-05)
(0.0294529 0.000249232 8.1559e-05)
(0.0292286 0.000219468 7.57298e-05)
(0.0290641 0.000199812 7.2432e-05)
(0.028816 0.000172573 6.77323e-05)
(0.028631 0.000154361 6.43034e-05)
(0.0283499 0.000129089 6.01005e-05)
(0.028147 0.000113103 5.84426e-05)
(0.02781 8.97779e-05 5.72615e-05)
(0.0275745 7.59702e-05 5.71472e-05)
(0.0271515 5.61737e-05 5.76745e-05)
(0.0268018 4.29971e-05 5.8366e-05)
(0.0264413 3.24019e-05 5.91012e-05)
(0.0259636 2.19334e-05 5.97508e-05)
(0.025129 9.04806e-06 5.9798e-05)
(0.0244223 1.78895e-06 5.89429e-05)
(0.0236081 -3.63517e-06 5.73373e-05)
(0.0225794 -7.69552e-06 5.49324e-05)
(0.0212929 -1.03007e-05 5.17872e-05)
(-0.000384903 0.00016626 -2.32025e-06)
(-0.0006285 0.00030234 -3.92966e-06)
(-0.000548684 0.000413103 -4.75771e-06)
(-5.68317e-05 0.000356691 -4.46514e-06)
(0.00161737 0.000142698 -1.53796e-06)
(0.00343122 -5.71267e-05 1.82628e-06)
(0.00571494 -0.000271109 6.35681e-06)
(0.00960522 -0.000539239 1.52373e-05)
(0.0124454 -0.000661373 2.00766e-05)
(0.0152794 -0.000711517 2.12683e-05)
(0.0179835 -0.000692034 1.95231e-05)
(0.0204085 -0.000604137 1.60528e-05)
(0.0224797 -0.000460668 1.0258e-05)
(0.0241127 -0.000282402 1.00033e-06)
(0.0253293 -9.53612e-05 -1.09725e-05)
(0.0261787 8.64893e-05 -2.16196e-05)
(0.0267323 0.000247095 -3.05593e-05)
(0.0270797 0.00038874 -3.35936e-05)
(0.0272929 0.00050822 -2.67038e-05)
(0.0274178 0.000610235 -1.49724e-05)
(0.0274875 0.000698225 -2.17599e-06)
(0.0275287 0.000774973 9.39587e-06)
(0.0275549 0.000841357 1.97974e-05)
(0.0275742 0.000899819 3.07669e-05)
(0.0275963 0.000950028 3.98028e-05)
(0.0276231 0.000990754 4.25786e-05)
(0.0276468 0.00101579 4.12106e-05)
(0.0276875 0.00104094 3.97738e-05)
(0.0277474 0.00105878 3.98631e-05)
(0.0278292 0.00107004 3.73403e-05)
(0.0279177 0.00107293 3.01183e-05)
(0.0280073 0.00106778 1.47674e-05)
(0.0280762 0.00106146 3.28157e-06)
(0.0281911 0.00104476 -7.07298e-06)
(0.0283293 0.00102342 -1.05421e-05)
(0.0284863 0.000998878 -3.11694e-06)
(0.0286543 0.000972076 1.22002e-05)
(0.0287744 0.000953821 2.55509e-05)
(0.028956 0.000923694 5.00503e-05)
(0.0291393 0.000891329 7.41585e-05)
(0.0293201 0.000857799 9.14082e-05)
(0.0294376 0.000836043 9.94452e-05)
(0.0296085 0.000801333 0.000108546)
(0.0297759 0.000764805 0.000114817)
(0.0299345 0.000727349 0.000120765)
(0.0300751 0.0006891 0.00012559)
(0.0301574 0.000664683 0.000128671)
(0.0302711 0.000626457 0.000135057)
(0.0303622 0.000587949 0.000144883)
(0.0304063 0.000564053 0.000150114)
(0.0304589 0.00052662 0.000153256)
(0.0304908 0.000490161 0.00015218)
(0.030497 0.000454534 0.000147376)
(0.0304862 0.000433485 0.000142888)
(0.0304421 0.000399529 0.000133517)
(0.0303622 0.00036651 0.000121943)
(0.0302994 0.000347456 0.000114802)
(0.0301687 0.000315439 0.000104024)
(0.0300796 0.000297372 9.93238e-05)
(0.0299044 0.00026626 9.29539e-05)
(0.0297049 0.000235915 8.66556e-05)
(0.0295833 0.000219357 8.27606e-05)
(0.0293491 0.000190342 7.62059e-05)
(0.029211 0.00017485 7.32315e-05)
(0.0289421 0.000147353 6.81095e-05)
(0.0287872 0.000133022 6.5309e-05)
(0.0284791 0.00010729 6.09576e-05)
(0.0283017 9.41629e-05 5.94289e-05)
(0.0279321 7.05526e-05 5.80787e-05)
(0.0277132 5.88931e-05 5.79326e-05)
(0.027472 4.78784e-05 5.80096e-05)
(0.0269217 2.84536e-05 5.86244e-05)
(0.0265759 1.94395e-05 5.91111e-05)
(0.026174 1.12784e-05 5.95282e-05)
(0.0251675 -2.00686e-06 5.93583e-05)
(0.0244962 -7.31051e-06 5.84591e-05)
(0.0236817 -1.14276e-05 5.69166e-05)
(0.0226869 -1.43067e-05 5.47286e-05)
(0.0214677 -1.58407e-05 5.18796e-05)
(-0.000161915 0.000106929 -1.25824e-06)
(-0.00053846 0.000273522 -3.44047e-06)
(-0.000727229 0.000415089 -4.91193e-06)
(-0.000438245 0.000480671 -5.15486e-06)
(0.000147582 0.000419681 -4.52897e-06)
(-0.000562942 0.000889421 -7.18063e-06)
(0.000340896 0.00073976 -3.87082e-06)
(0.00169625 0.000514278 4.36557e-07)
(0.00436886 0.00011045 5.58823e-06)
(0.00675688 -0.000181973 5.45802e-06)
(0.00945769 -0.000430909 3.79668e-06)
(0.0123393 -0.000608041 5.50814e-06)
(0.0152131 -0.000693463 1.06728e-05)
(0.0179589 -0.000691761 1.33204e-05)
(0.0204036 -0.000606008 1.12798e-05)
(0.0224544 -0.00046113 4.42848e-06)
(0.0240713 -0.000282199 -7.49476e-06)
(0.025262 -9.7721e-05 -1.97469e-05)
(0.026079 7.4393e-05 -2.69914e-05)
(0.0266165 0.000224949 -2.76538e-05)
(0.0269529 0.000352244 -2.10684e-05)
(0.027158 0.00045769 -8.90831e-06)
(0.0272822 0.000545511 1.78177e-06)
(0.0273641 0.000619909 1.19687e-05)
(0.0274249 0.00068321 2.30789e-05)
(0.0274783 0.00073615 3.28651e-05)
(0.0275334 0.000780258 3.75516e-05)
(0.0275937 0.000815971 3.75522e-05)
(0.027633 0.000838977 3.80463e-05)
(0.0277162 0.000862902 3.90574e-05)
(0.0278191 0.000879116 3.72999e-05)
(0.0279287 0.000887695 2.87659e-05)
(0.0280398 0.000887895 1.23219e-05)
(0.0281641 0.00088114 -4.43727e-07)
(0.0282415 0.000879753 -4.31835e-06)
(0.0283985 0.000864474 -6.10766e-06)
(0.0285701 0.000845358 2.69471e-06)
(0.0287528 0.000823836 1.86319e-05)
(0.0289445 0.000800333 4.26347e-05)
(0.029139 0.000774582 6.7693e-05)
(0.0292448 0.000762941 7.9077e-05)
(0.0294323 0.000734706 9.50315e-05)
(0.029615 0.00070548 0.000107041)
(0.0297737 0.000746609 0.000114538)
(0.0298659 0.000728191 0.000117943)
(0.030021 0.000689835 0.000123566)
(0.0301575 0.000651104 0.000128264)
(0.0302765 0.00061285 0.000134507)
(0.0303317 0.000592797 0.00013962)
(0.0304127 0.000553933 0.000149349)
(0.0304689 0.000516105 0.000153116)
(0.030503 0.000479483 0.000152081)
(0.0305102 0.000460385 0.000150073)
(0.0305012 0.000425088 0.000143268)
(0.0304579 0.000390957 0.000133756)
(0.0304185 0.000373333 0.00012755)
(0.0303195 0.000340577 0.000115333)
(0.0301873 0.000308443 0.000104279)
(0.0301038 0.00029174 9.97672e-05)
(0.0299265 0.000260502 9.32298e-05)
(0.0297235 0.000230049 8.68237e-05)
(0.0296076 0.000214492 8.30595e-05)
(0.0293698 0.000185393 7.62677e-05)
(0.0292366 0.000170665 7.3369e-05)
(0.0289638 0.000143129 6.81897e-05)
(0.0288132 0.00012937 6.54722e-05)
(0.0285011 0.000103628 6.1086e-05)
(0.0283273 9.09383e-05 5.95928e-05)
(0.0279535 6.73769e-05 5.82035e-05)
(0.0277377 5.60644e-05 5.80424e-05)
(0.0274995 4.53301e-05 5.80912e-05)
(0.0269436 2.60338e-05 5.86545e-05)
(0.0266007 1.72644e-05 5.91207e-05)
(0.0262021 9.30809e-06 5.95248e-05)
(0.0251861 -3.74578e-06 5.93271e-05)
(0.0245165 -8.8394e-06 5.84265e-05)
(0.0237036 -1.27687e-05 5.68957e-05)
(0.0227099 -1.54584e-05 5.47277e-05)
(0.0214916 -1.6819e-05 5.19018e-05)
(-0.000317437 0.00022461 -2.58577e-06)
(-0.000931577 0.000648487 -7.31613e-06)
(-0.00129056 0.000881712 -9.67796e-06)
(-0.00150024 0.00102158 -1.08773e-05)
(-0.00162126 0.00111625 -1.14684e-05)
(-0.00153395 0.0011554 -1.05791e-05)
(-0.000897921 0.00101044 -6.65518e-06)
(8.64439e-05 0.000783605 -2.58619e-06)
(0.0015845 0.000465734 1.2487e-06)
(0.00364271 0.0001095 2.2956e-06)
(0.00621201 -0.000236677 -9.6036e-08)
(0.00914276 -0.000519065 -1.17402e-06)
(0.0122553 -0.000707312 4.35374e-06)
(0.015347 -0.000783632 1.21609e-05)
(0.0182503 -0.000759896 1.54113e-05)
(0.0207724 -0.000645129 1.37724e-05)
(0.0228279 -0.000473479 4.45273e-06)
(0.0243966 -0.000276982 -1.03744e-05)
(0.025504 -8.51387e-05 -2.29532e-05)
(0.0262399 8.62462e-05 -2.87884e-05)
(0.0267113 0.000233054 -2.78574e-05)
(0.027003 0.000354089 -1.79246e-05)
(0.0271797 0.000454528 -5.62101e-06)
(0.0272889 0.000537559 4.09457e-06)
(0.0273665 0.000609225 1.45633e-05)
(0.0274268 0.000669332 2.56984e-05)
(0.0274836 0.000719622 3.47102e-05)
(0.0275434 0.000761554 3.75806e-05)
(0.0276092 0.000795299 3.74265e-05)
(0.0276894 0.000821565 3.88649e-05)
(0.0277903 0.00084051 3.84914e-05)
(0.0278671 0.000851293 3.49723e-05)
(0.0279782 0.000857618 2.2483e-05)
(0.0280943 0.000856376 6.10163e-06)
(0.0282277 0.000848778 -2.68348e-06)
(0.0283805 0.000835588 -5.62495e-06)
(0.0285475 0.000818715 6.16021e-07)
(0.0286688 0.00080692 9.88177e-06)
(0.0288528 0.000786603 2.90671e-05)
(0.0290446 0.000764474 5.51439e-05)
(0.029236 0.000739933 7.6576e-05)
(0.0294198 0.00071354 9.31092e-05)
(0.0295968 0.000687075 0.000105599)
(0.0297184 0.000668525 0.000111377)
(0.0298893 0.00063905 0.000117543)
(0.0300483 0.000607887 0.000123432)
(0.0301865 0.000575876 0.000127794)
(0.0302706 0.000554385 0.000130879)
(0.0303795 0.000522363 0.000137567)
(0.0304645 0.00048962 0.000147422)
(0.0305232 0.000457382 0.000152299)
(0.0305513 0.00043629 0.000152245)
(0.0305749 0.000405383 0.000150051)
(0.0305716 0.000375247 0.000143894)
(0.030552 0.000355767 0.000138083)
(0.0304959 0.0003274 0.000127739)
(0.0304067 0.000299414 0.000116322)
(0.0303318 0.000281373 0.000109309)
(0.0301953 0.00025432 0.000100641)
(0.0300318 0.000227483 9.43715e-05)
(0.0299142 0.000210529 9.06871e-05)
(0.0297149 0.000184744 8.39144e-05)
(0.0294953 0.000159685 7.70743e-05)
(0.029346 0.000144304 7.35809e-05)
(0.0290924 0.000120609 6.87976e-05)
(0.0289252 0.000106415 6.59109e-05)
(0.028635 8.42027e-05 6.20191e-05)
(0.0284447 7.13008e-05 6.04304e-05)
(0.0280959 5.10232e-05 5.90014e-05)
(0.0278628 3.97811e-05 5.86595e-05)
(0.0276057 2.93038e-05 5.85532e-05)
(0.0270817 1.30431e-05 5.88298e-05)
(0.026718 4.77064e-06 5.92033e-05)
(0.0262953 -2.52304e-06 5.95097e-05)
(0.0253304 -1.29409e-05 5.91665e-05)
(0.0246328 -1.72007e-05 5.82309e-05)
(0.0237867 -2.01862e-05 5.66955e-05)
(0.0227544 -2.1841e-05 5.45456e-05)
(0.0214943 -2.21341e-05 5.17357e-05)
(-0.000364522 0.00026698 -2.7198e-06)
(-0.000823481 0.000601221 -6.10484e-06)
(-0.00119909 0.000865624 -8.74544e-06)
(-0.00151837 0.00108576 -1.04584e-05)
(-0.00182027 0.00128894 -1.12155e-05)
(-0.00203609 0.00145709 -1.04809e-05)
(-0.00213517 0.00156272 -8.31271e-06)
(-0.00194751 0.00157984 -3.63205e-06)
(-0.00147256 0.00146263 -8.78369e-07)
(-0.000660234 0.00125342 1.46822e-06)
(0.000547006 0.000960353 2.50347e-06)
(0.00218721 0.000605261 2.97054e-06)
(0.00429639 0.000218383 6.2794e-06)
(0.0068342 -0.000149075 1.25151e-05)
(0.00974702 -0.00045309 1.54369e-05)
(0.0128688 -0.000650241 1.27271e-05)
(0.0159836 -0.00072425 9.31607e-06)
(0.0188633 -0.000679991 9.78697e-06)
(0.0213433 -0.000546391 9.58295e-06)
(0.0233175 -0.000363334 -2.40565e-06)
(0.0247697 -0.000168555 -1.9086e-05)
(0.0257588 8.93632e-06 -2.85708e-05)
(0.0263897 0.000156801 -2.62592e-05)
(0.0267777 0.000274466 -1.6167e-05)
(0.0270146 0.000367353 -3.56598e-06)
(0.0271659 0.000441386 7.27019e-06)
(0.0272749 0.00050144 1.79099e-05)
(0.0273668 0.000551048 2.72429e-05)
(0.0274549 0.000591849 3.30305e-05)
(0.0275458 0.000625058 3.56677e-05)
(0.0276495 0.000651048 3.70243e-05)
(0.0277727 0.000670722 3.73061e-05)
(0.0279034 0.000684276 3.03497e-05)
(0.0280353 0.000691014 1.44727e-05)
(0.0281191 0.000695127 6.36851e-06)
(0.0282724 0.000691201 7.98683e-08)
(0.0284433 0.000682316 -6.91046e-07)
(0.0286249 0.000669807 6.86319e-06)
(0.0288151 0.000655438 2.18178e-05)
(0.0290141 0.000639338 4.6305e-05)
(0.0292145 0.000621308 6.95493e-05)
(0.0293357 0.000610935 8.05306e-05)
(0.0295246 0.000589851 9.71772e-05)
(0.0297106 0.000567815 0.00010944)
(0.0298921 0.000544296 0.0001167)
(0.0300619 0.000519042 0.00012337)
(0.0301572 0.000503304 0.000126526)
(0.0302939 0.00047573 0.000130545)
(0.0304122 0.000448076 0.000135811)
(0.0305074 0.00042 0.000144487)
(0.0305512 0.000402782 0.000149395)
(0.0306032 0.000374529 0.000151808)
(0.0306331 0.000346985 0.000149881)
(0.0306357 0.000320316 0.00014443)
(0.0306218 0.000304564 0.000139165)
(0.0305716 0.000279165 0.000128564)
(0.0304878 0.000254263 0.000116732)
(0.0304219 0.000239441 0.000110399)
(0.0302894 0.00021499 0.000101848)
(0.0301284 0.00019072 9.53914e-05)
(0.0300203 0.000176429 9.18414e-05)
(0.0298209 0.000152768 8.47099e-05)
(0.0296934 0.000139202 8.0195e-05)
(0.0294594 0.000116679 7.3879e-05)
(0.0293138 0.000104014 7.10272e-05)
(0.0290452 8.26482e-05 6.65387e-05)
(0.028881 7.08564e-05 6.42567e-05)
(0.0285683 5.0909e-05 6.13018e-05)
(0.028375 4.02607e-05 6.02739e-05)
(0.0279859 2.24612e-05 5.92253e-05)
(0.0277367 1.33873e-05 5.89531e-05)
(0.0271972 -1.25353e-06 5.90716e-05)
(0.0268384 -8.20607e-06 5.93808e-05)
(0.0264228 -1.42857e-05 5.96307e-05)
(0.0254274 -2.29329e-05 5.92011e-05)
(0.0247292 -2.60011e-05 5.82435e-05)
(0.0238815 -2.78319e-05 5.6734e-05)
(0.0228454 -2.83481e-05 5.46443e-05)
(0.0215794 -2.75631e-05 5.18967e-05)
(-0.000366725 0.000268571 -2.67884e-06)
(-0.000826923 0.000601097 -5.88716e-06)
(-0.00119682 0.000863055 -8.3291e-06)
(-0.00151921 0.0010858 -9.97566e-06)
(-0.0018379 0.00130524 -1.06823e-05)
(-0.00209045 0.00148913 -9.98166e-06)
(-0.00225089 0.00162274 -7.88694e-06)
(-0.00225081 0.00167809 -4.86916e-06)
(-0.00204476 0.00164589 -2.07904e-06)
(-0.00157212 0.00151531 2.72993e-07)
(-0.000767859 0.00128734 2.38539e-06)
(0.000438308 0.000966869 3.26002e-06)
(0.00211332 0.000578846 4.45575e-06)
(0.00429631 0.000163008 8.675e-06)
(0.0069621 -0.000225476 1.36813e-05)
(0.0100309 -0.000533438 1.35258e-05)
(0.0132986 -0.000716634 9.333e-06)
(0.0165149 -0.000763203 7.86553e-06)
(0.0194258 -0.000686401 1.27146e-05)
(0.0218726 -0.000525835 1.04852e-05)
(0.0237563 -0.000325642 -6.50209e-06)
(0.0250949 -0.0001275 -2.39711e-05)
(0.0259733 4.50864e-05 -3.05633e-05)
(0.0265211 0.000184587 -2.49314e-05)
(0.0268547 0.000294013 -1.24422e-05)
(0.0270591 0.000379679 1.51459e-08)
(0.0271945 0.000448213 1.04537e-05)
(0.0272984 0.000504338 2.09343e-05)
(0.0273906 0.000550627 2.93616e-05)
(0.027482 0.00058865 3.4264e-05)
(0.0275786 0.000619115 3.59133e-05)
(0.0276926 0.000642354 3.73951e-05)
(0.0278232 0.000659969 3.57855e-05)
(0.0279566 0.000670897 2.44047e-05)
(0.0280936 0.000675298 8.52312e-06)
(0.0282455 0.000673004 1.13056e-06)
(0.0284152 0.000665307 -3.65044e-07)
(0.0285981 0.000653867 5.46379e-06)
(0.0287151 0.000647408 1.28694e-05)
(0.0289112 0.000632675 3.25342e-05)
(0.0291135 0.000615937 5.82301e-05)
(0.0293141 0.000597364 7.81664e-05)
(0.0295064 0.000576947 9.48648e-05)
(0.0296945 0.000555382 0.000108468)
(0.0298059 0.000543104 0.000113321)
(0.0299842 0.000518937 0.000120158)
(0.0301476 0.000493001 0.000126309)
(0.0302887 0.000465674 0.000130303)
(0.030411 0.000438122 0.000135439)
(0.0304708 0.000422868 0.000139822)
(0.030553 0.000394486 0.0001486)
(0.0306083 0.000366072 0.000151734)
(0.0306407 0.000338321 0.000149953)
(0.0306465 0.000323742 0.000147522)
(0.0306332 0.000297289 0.000139783)
(0.0305842 0.000271643 0.000128983)
(0.0305426 0.000258283 0.000122336)
(0.0304405 0.000233241 0.000110912)
(0.030306 0.000208449 0.000102054)
(0.0302222 0.000195552 9.83315e-05)
(0.030043 0.000171024 9.22122e-05)
(0.0298376 0.000146918 8.48023e-05)
(0.0297215 0.000134703 8.05889e-05)
(0.0294799 0.000111687 7.39172e-05)
(0.0293461 0.000100187 7.12644e-05)
(0.0291439 6.12682e-05 6.70048e-05)
(0.0289924 5.13245e-05 6.50558e-05)
(0.0286709 3.26027e-05 6.20276e-05)
(0.0284901 2.35321e-05 6.09506e-05)
(0.0280878 6.9323e-06 5.96392e-05)
(0.0278505 -7.43042e-07 5.92999e-05)
(0.0272897 -1.4052e-05 5.9363e-05)
(0.0269416 -1.97519e-05 5.96523e-05)
(0.0265386 -2.46954e-05 5.98837e-05)
(0.0255039 -3.17561e-05 5.93938e-05)
(0.0248145 -3.3761e-05 5.84225e-05)
(0.023975 -3.4582e-05 5.6942e-05)
(0.0229482 -3.4145e-05 5.49239e-05)
(0.0216897 -3.24339e-05 5.2247e-05)
(-0.000229778 0.000252172 -4.43144e-06)
(-0.000585136 0.000588832 -9.93955e-06)
(-0.000973426 0.000894877 -1.4821e-05)
(-0.00135317 0.00114778 -1.82584e-05)
(-0.00173214 0.00139775 -1.95091e-05)
(-0.00190633 0.00151116 -1.88722e-05)
(-0.00222167 0.00172746 -1.69314e-05)
(-0.00247053 0.00190795 -1.41961e-05)
(-0.00260776 0.00202467 -1.13492e-05)
(-0.00259915 0.00206238 -8.98859e-06)
(-0.00239411 0.00200792 -6.52646e-06)
(-0.00194704 0.00185904 -2.01517e-06)
(-0.00120371 0.00161491 5.8858e-06)
(-9.66889e-05 0.00128483 1.74986e-05)
(0.0014219 0.000889703 3.02437e-05)
(0.00339926 0.000459954 4.03298e-05)
(0.00584049 3.90357e-05 4.25947e-05)
(0.00871272 -0.000324688 3.72602e-05)
(0.0118811 -0.000581245 2.86309e-05)
(0.0151518 -0.000697613 1.94232e-05)
(0.0182664 -0.000672685 1.1308e-05)
(0.0209758 -0.000539957 4.10322e-06)
(0.0231353 -0.000350053 -7.76941e-06)
(0.0247002 -0.00015284 -2.24907e-05)
(0.0257383 2.01202e-05 -2.78193e-05)
(0.0263824 0.000155055 -2.37458e-05)
(0.026766 0.000253721 -1.24856e-05)
(0.027001 0.000326249 2.34697e-06)
(0.0271629 0.000380821 1.3618e-05)
(0.0272901 0.000422593 2.32098e-05)
(0.0274074 0.000456158 3.0548e-05)
(0.0275276 0.000483017 3.34864e-05)
(0.0276633 0.000503494 3.4951e-05)
(0.0278114 0.000518648 3.38618e-05)
(0.0279621 0.000529357 2.23611e-05)
(0.0281179 0.000534362 8.20022e-06)
(0.0282876 0.000533421 3.20806e-06)
(0.0284719 0.000528714 4.07173e-06)
(0.0286637 0.000520624 1.14782e-05)
(0.0288617 0.000510865 2.61221e-05)
(0.0290688 0.000499854 4.88335e-05)
(0.0292737 0.000487238 7.04388e-05)
(0.0294124 0.000478636 8.24577e-05)
(0.029602 0.000463614 9.9564e-05)
(0.0297919 0.000447162 0.000111823)
(0.0299776 0.00042943 0.000118665)
(0.0301477 0.000410511 0.000126382)
(0.0302545 0.000396344 0.000129639)
(0.0303825 0.00037531 0.000133218)
(0.0304978 0.000353426 0.000137601)
(0.030588 0.000330852 0.000146112)
(0.0306459 0.000308406 0.000150902)
(0.0306747 0.000292509 0.000150841)
(0.0306963 0.000270346 0.000147766)
(0.0306888 0.000248723 0.000140916)
(0.0306654 0.00023453 0.000134279)
(0.0306054 0.000214258 0.000122823)
(0.030513 0.000193781 0.000111657)
(0.0303925 0.000173503 0.000103239)
(0.030298 0.000160197 9.89462e-05)
(0.0301319 0.000139802 9.31741e-05)
(0.0300156 0.000127134 8.89395e-05)
(0.0298111 0.000107146 8.10305e-05)
(0.0295823 8.75083e-05 7.43114e-05)
(0.0294367 7.6178e-05 7.13663e-05)
(0.0291722 5.74218e-05 6.72251e-05)
(0.0290094 4.69861e-05 6.51773e-05)
(0.0286984 2.93272e-05 6.22519e-05)
(0.0285077 1.99836e-05 6.10809e-05)
(0.0281161 4.23484e-06 5.97487e-05)
(0.02787 -3.52408e-06 5.93766e-05)
(0.0275951 -1.05708e-05 5.92832e-05)
(0.0269645 -2.18569e-05 5.96996e-05)
(0.0265522 -2.6696e-05 5.9923e-05)
(0.0255341 -3.32858e-05 5.94311e-05)
(0.0248354 -3.51413e-05 5.84519e-05)
(0.0239852 -3.57866e-05 5.696e-05)
(0.0229471 -3.51646e-05 5.49288e-05)
(0.0216771 -3.32543e-05 5.22336e-05)
(-0.000216986 0.00024519 -4.36149e-06)
(-0.000552007 0.000575513 -9.99528e-06)
(-0.000934522 0.000884379 -1.5155e-05)
(-0.00131293 0.00113832 -1.88806e-05)
(-0.00150565 0.00126555 -2.01992e-05)
(-0.00187189 0.00150792 -2.03065e-05)
(-0.00219796 0.00172927 -1.84492e-05)
(-0.00247166 0.00192194 -1.57617e-05)
(-0.0026461 0.0020564 -1.2901e-05)
(-0.0026905 0.00211586 -1.04289e-05)
(-0.00255988 0.0020874 -8.01972e-06)
(-0.00221351 0.00196729 -3.46961e-06)
(-0.00193293 0.00186526 6.83861e-07)
(-0.0011448 0.00159765 1.19902e-05)
(7.25008e-06 0.00124497 2.61211e-05)
(0.00158779 0.000827035 3.98287e-05)
(0.00364859 0.000376957 4.85192e-05)
(0.00621317 -5.95577e-05 4.7392e-05)
(0.00923903 -0.000423171 3.83327e-05)
(0.0125657 -0.000659399 2.59363e-05)
(0.0159535 -0.000736318 1.5014e-05)
(0.0200844 -0.000613999 7.66502e-06)