/*--------------------------------*- C++ -*----------------------------------*\
  =========                 |
  \\      /  F ield         | OpenFOAM: The Open Source CFD Toolbox
   \\    /   O peration     | Website:  https://openfoam.org
    \\  /    A nd           | Version:  7
     \\/     M anipulation  |
\*---------------------------------------------------------------------------*/
FoamFile
{
    version     2.0;
    format      ascii;
    class       volSymmTensorField;
    location    "0";
    object      TauDNS;
}
// * * * * * * * * * * * * * * * * * * * * * * * * * * * * * * * * * * * * * //

dimensions      [0 2 -2 0 0 0 0];

internalField   nonuniform List<symmTensor> 
10981
(
(4.58406e-06 -7.51376e-08 0 3.13016e-08 0 2.19978e-06)
(1.85891e-05 -4.95256e-07 0 2.39601e-07 0 7.17434e-06)
(3.01627e-05 -9.63895e-07 0 4.78111e-07 0 1.03761e-05)
(4.81397e-05 -1.92375e-06 0 9.87647e-07 0 1.40435e-05)
(5.95463e-05 -2.70529e-06 0 1.53052e-06 0 1.82588e-05)
(6.01741e-05 -2.95397e-06 0 1.91863e-06 0 2.13423e-05)
(5.58177e-05 -2.90422e-06 0 2.36263e-06 0 2.47262e-05)
(4.4582e-05 -2.35774e-06 0 3.23099e-06 0 2.98363e-05)
(3.70993e-05 -1.82888e-06 0 4.01219e-06 0 3.2852e-05)
(3.11099e-05 -1.33951e-06 0 4.97453e-06 0 3.51954e-05)
(2.67449e-05 -9.98282e-07 0 6.10569e-06 0 3.67061e-05)
(2.37057e-05 -8.4752e-07 0 7.38568e-06 0 3.74119e-05)
(2.16494e-05 -8.88847e-07 0 8.77563e-06 0 3.73785e-05)
(2.02374e-05 -1.09292e-06 0 1.02272e-05 0 3.67559e-05)
(1.92897e-05 -1.43184e-06 0 1.16908e-05 0 3.56571e-05)
(1.86367e-05 -1.85965e-06 0 1.31312e-05 0 3.42206e-05)
(1.82071e-05 -2.34114e-06 0 1.45144e-05 0 3.25183e-05)
(1.79432e-05 -2.84707e-06 0 1.58108e-05 0 3.06135e-05)
(1.779e-05 -3.36671e-06 0 1.6998e-05 0 2.86345e-05)
(1.7716e-05 -3.89064e-06 0 1.8049e-05 0 2.67404e-05)
(1.77186e-05 -4.4073e-06 0 1.89483e-05 0 2.50046e-05)
(1.77936e-05 -4.9078e-06 0 1.96888e-05 0 2.34174e-05)
(1.79142e-05 -5.39334e-06 0 2.02586e-05 0 2.19914e-05)
(1.805e-05 -5.85526e-06 0 2.06534e-05 0 2.07723e-05)
(1.82082e-05 -6.27501e-06 0 2.08627e-05 0 1.97578e-05)
(1.8399e-05 -6.63899e-06 0 2.08829e-05 0 1.8918e-05)
(1.86088e-05 -6.95008e-06 0 2.07399e-05 0 1.82015e-05)
(1.87168e-05 -7.11192e-06 0 2.05929e-05 0 1.78396e-05)
(1.88559e-05 -7.3603e-06 0 2.02435e-05 0 1.72858e-05)
(1.89635e-05 -7.54562e-06 0 1.97827e-05 0 1.6823e-05)
(1.903e-05 -7.65402e-06 0 1.92085e-05 0 1.64221e-05)
(1.90868e-05 -7.68421e-06 0 1.85378e-05 0 1.59984e-05)
(1.9107e-05 -7.64018e-06 0 1.78005e-05 0 1.55151e-05)
(1.90826e-05 -7.58203e-06 0 1.73469e-05 0 1.51946e-05)
(1.89824e-05 -7.43517e-06 0 1.65528e-05 0 1.46178e-05)
(1.87506e-05 -7.22028e-06 0 1.57342e-05 0 1.40045e-05)
(1.83604e-05 -6.94651e-06 0 1.49457e-05 0 1.33565e-05)
(1.78312e-05 -6.62057e-06 0 1.41683e-05 0 1.27114e-05)
(1.74681e-05 -6.4113e-06 0 1.3693e-05 0 1.23165e-05)
(1.6763e-05 -6.04889e-06 0 1.29335e-05 0 1.16897e-05)
(1.5959e-05 -5.63927e-06 0 1.21991e-05 0 1.11199e-05)
(1.5137e-05 -5.20755e-06 0 1.1469e-05 0 1.0568e-05)
(1.46461e-05 -4.94143e-06 0 1.10348e-05 0 1.02377e-05)
(1.3842e-05 -4.49919e-06 0 1.03496e-05 0 9.69852e-06)
(1.30508e-05 -4.05466e-06 0 9.70521e-06 0 9.20616e-06)
(1.22578e-05 -3.60733e-06 0 9.10056e-06 0 8.75975e-06)
(1.17943e-05 -3.33785e-06 0 8.75701e-06 0 8.49882e-06)
(1.10833e-05 -2.89274e-06 0 8.20256e-06 0 8.09962e-06)
(1.04451e-05 -2.46284e-06 0 7.6685e-06 0 7.76091e-06)
(9.87241e-06 -2.05396e-06 0 7.16261e-06 0 7.47064e-06)
(9.57325e-06 -1.82433e-06 0 6.88128e-06 0 7.32276e-06)
(9.13329e-06 -1.45242e-06 0 6.43705e-06 0 7.11182e-06)
(8.74527e-06 -1.0941e-06 0 6.03716e-06 0 6.9369e-06)
(8.54362e-06 -8.90782e-07 0 5.82256e-06 0 6.8477e-06)
(8.25724e-06 -5.51395e-07 0 5.47461e-06 0 6.70104e-06)
(8.06905e-06 -2.39731e-07 0 5.15497e-06 0 6.59102e-06)
(7.99996e-06 -7.63038e-08 0 4.9879e-06 0 6.55753e-06)
(7.93025e-06 1.94615e-07 0 4.71466e-06 0 6.5377e-06)
(7.91749e-06 4.3708e-07 0 4.46577e-06 0 6.5468e-06)
(7.92969e-06 5.55981e-07 0 4.3361e-06 0 6.55914e-06)
(7.98633e-06 7.43853e-07 0 4.10623e-06 0 6.60278e-06)
(8.03584e-06 8.31114e-07 0 3.98256e-06 0 6.63847e-06)
(8.15622e-06 9.65364e-07 0 3.75349e-06 0 6.72668e-06)
(8.23379e-06 1.02408e-06 0 3.62858e-06 0 6.7844e-06)
(8.40869e-06 1.11549e-06 0 3.38723e-06 0 6.90076e-06)
(8.52053e-06 1.15636e-06 0 3.25434e-06 0 6.96419e-06)
(8.77269e-06 1.22266e-06 0 2.99006e-06 0 7.0827e-06)
(8.92998e-06 1.25259e-06 0 2.84398e-06 0 7.14074e-06)
(9.3124e-06 1.30293e-06 0 2.54556e-06 0 7.23542e-06)
(9.56956e-06 1.326e-06 0 2.37951e-06 0 7.2705e-06)
(1.02049e-05 1.36559e-06 0 2.03832e-06 0 7.29279e-06)
(1.06142e-05 1.38327e-06 0 1.85401e-06 0 7.27209e-06)
(1.10895e-05 1.39832e-06 0 1.66605e-06 0 7.22195e-06)
(1.16356e-05 1.40949e-06 0 1.47638e-06 0 7.13518e-06)
(1.28987e-05 1.41131e-06 0 1.10888e-06 0 6.82525e-06)
(1.3608e-05 1.39407e-06 0 9.29114e-07 0 6.57647e-06)
(1.43017e-05 1.35632e-06 0 7.58822e-07 0 6.25449e-06)
(1.48896e-05 1.29003e-06 0 6.01267e-07 0 5.8519e-06)
(1.52269e-05 1.18734e-06 0 4.59229e-07 0 5.36461e-06)
(4.57336e-06 -7.49543e-08 0 3.12154e-08 0 2.19746e-06)
(1.85152e-05 -4.89395e-07 0 2.35657e-07 0 7.14261e-06)
(3.01593e-05 -9.59236e-07 0 4.73892e-07 0 1.03374e-05)
(4.80909e-05 -1.90086e-06 0 9.71558e-07 0 1.4e-05)
(5.94332e-05 -2.66351e-06 0 1.50243e-06 0 1.82033e-05)
(6.00671e-05 -2.90736e-06 0 1.89141e-06 0 2.13371e-05)
(5.55727e-05 -2.84801e-06 0 2.34108e-06 0 2.47853e-05)
(4.44615e-05 -2.30593e-06 0 3.20111e-06 0 2.98386e-05)
(3.69172e-05 -1.7744e-06 0 3.99435e-06 0 3.2896e-05)
(3.0909e-05 -1.28559e-06 0 4.97371e-06 0 3.52658e-05)
(2.65584e-05 -9.50508e-07 0 6.12493e-06 0 3.67825e-05)
(2.3549e-05 -8.10291e-07 0 7.42547e-06 0 3.74778e-05)
(2.15313e-05 -8.65198e-07 0 8.83374e-06 0 3.74185e-05)
(2.01501e-05 -1.08299e-06 0 1.03e-05 0 3.67678e-05)
(1.92285e-05 -1.43445e-06 0 1.17725e-05 0 3.5641e-05)
(1.85944e-05 -1.87217e-06 0 1.32165e-05 0 3.4182e-05)
(1.818e-05 -2.36002e-06 0 1.45979e-05 0 3.24617e-05)
(1.79269e-05 -2.86917e-06 0 1.5888e-05 0 3.05468e-05)
(1.77811e-05 -3.38984e-06 0 1.70652e-05 0 2.85696e-05)
(1.77123e-05 -3.91271e-06 0 1.81031e-05 0 2.6689e-05)
(1.77184e-05 -4.42641e-06 0 1.89892e-05 0 2.49702e-05)
(1.77951e-05 -4.92245e-06 0 1.97173e-05 0 2.34002e-05)
(1.79161e-05 -5.4033e-06 0 2.02773e-05 0 2.19901e-05)
(1.80514e-05 -5.86014e-06 0 2.06662e-05 0 2.07848e-05)
(1.82075e-05 -6.2753e-06 0 2.08733e-05 0 1.97802e-05)
(1.83954e-05 -6.63501e-06 0 2.08955e-05 0 1.89495e-05)
(1.86024e-05 -6.94195e-06 0 2.07593e-05 0 1.82405e-05)
(1.8729e-05 -7.13054e-06 0 2.05873e-05 0 1.78184e-05)
(1.88637e-05 -7.37316e-06 0 2.02403e-05 0 1.72772e-05)
(1.89702e-05 -7.55466e-06 0 1.97849e-05 0 1.68236e-05)
(1.90347e-05 -7.66074e-06 0 1.92166e-05 0 1.64307e-05)
(1.90904e-05 -7.69013e-06 0 1.85569e-05 0 1.60133e-05)
(1.91127e-05 -7.64827e-06 0 1.78358e-05 0 1.55423e-05)
(1.90849e-05 -7.58176e-06 0 1.73203e-05 0 1.51765e-05)
(1.89874e-05 -7.4375e-06 0 1.65419e-05 0 1.46112e-05)
(1.87571e-05 -7.22445e-06 0 1.57333e-05 0 1.40073e-05)
(1.83736e-05 -6.95436e-06 0 1.4957e-05 0 1.33662e-05)
(1.78557e-05 -6.63579e-06 0 1.41996e-05 0 1.27383e-05)
(1.74509e-05 -6.40136e-06 0 1.36663e-05 0 1.22951e-05)
(1.67587e-05 -6.04768e-06 0 1.29251e-05 0 1.16828e-05)
(1.59635e-05 -5.64192e-06 0 1.22011e-05 0 1.11219e-05)
(1.51559e-05 -5.21841e-06 0 1.14846e-05 0 1.05805e-05)
(1.46073e-05 -4.92027e-06 0 1.09996e-05 0 1.02112e-05)
(1.38281e-05 -4.49207e-06 0 1.03369e-05 0 9.68835e-06)
(1.30523e-05 -4.05515e-06 0 9.7039e-06 0 9.20467e-06)
(1.22738e-05 -3.61679e-06 0 9.1114e-06 0 8.76884e-06)
(1.17553e-05 -3.31498e-06 0 8.72743e-06 0 8.4761e-06)
(1.10712e-05 -2.88511e-06 0 8.19244e-06 0 8.09229e-06)
(1.04469e-05 -2.46426e-06 0 7.66928e-06 0 7.76127e-06)
(9.88972e-06 -2.06716e-06 0 7.17817e-06 0 7.4788e-06)
(9.55461e-06 -1.80995e-06 0 6.86292e-06 0 7.31332e-06)
(9.13028e-06 -1.45017e-06 0 6.43316e-06 0 7.10997e-06)
(8.7534e-06 -1.10245e-06 0 6.04516e-06 0 6.93999e-06)
(8.52693e-06 -8.73416e-07 0 5.80383e-06 0 6.84005e-06)
(8.25363e-06 -5.47484e-07 0 5.47009e-06 0 6.69853e-06)
(8.07229e-06 -2.46769e-07 0 5.16149e-06 0 6.59181e-06)
(7.9951e-06 -6.29018e-08 0 4.97365e-06 0 6.55505e-06)
(7.93016e-06 1.96246e-07 0 4.71268e-06 0 6.53734e-06)
(7.9176e-06 4.28694e-07 0 4.47462e-06 0 6.54612e-06)
(7.93109e-06 5.62434e-07 0 4.32911e-06 0 6.55963e-06)
(7.9854e-06 7.41563e-07 0 4.11001e-06 0 6.60152e-06)
(8.04132e-06 8.38685e-07 0 3.97203e-06 0 6.64159e-06)
(8.15653e-06 9.65559e-07 0 3.75461e-06 0 6.7261e-06)
(8.24289e-06 1.03003e-06 0 3.61631e-06 0 6.79038e-06)
(8.40937e-06 1.11605e-06 0 3.38764e-06 0 6.9007e-06)
(8.53246e-06 1.1605e-06 0 3.24213e-06 0 6.97013e-06)
(8.77178e-06 1.22288e-06 0 2.99207e-06 0 7.0821e-06)
(8.94221e-06 1.25509e-06 0 2.8341e-06 0 7.14469e-06)
(9.3039e-06 1.30253e-06 0 2.55204e-06 0 7.23398e-06)
(9.57764e-06 1.32711e-06 0 2.37492e-06 0 7.27158e-06)
(1.01768e-05 1.36454e-06 0 2.05211e-06 0 7.29345e-06)
(1.06035e-05 1.3832e-06 0 1.85846e-06 0 7.27308e-06)
(1.10997e-05 1.39888e-06 0 1.66198e-06 0 7.22071e-06)
(1.16672e-05 1.4102e-06 0 1.46566e-06 0 7.12934e-06)
(1.28643e-05 1.41181e-06 0 1.11725e-06 0 6.83522e-06)
(1.35907e-05 1.39462e-06 0 9.32469e-07 0 6.58228e-06)
(1.42981e-05 1.3563e-06 0 7.58629e-07 0 6.25456e-06)
(1.48921e-05 1.28876e-06 0 5.98958e-07 0 5.84564e-06)
(1.52247e-05 1.18436e-06 0 4.56058e-07 0 5.35251e-06)
(4.54255e-06 -8.43518e-08 0 3.43927e-08 0 2.31858e-06)
(1.90518e-05 -6.93637e-07 0 3.4419e-07 0 7.65711e-06)
(3.10185e-05 -1.32031e-06 0 6.79256e-07 0 1.13245e-05)
(4.87166e-05 -2.64215e-06 0 1.42342e-06 0 1.49844e-05)
(6.08738e-05 -3.80226e-06 0 2.18903e-06 0 1.86926e-05)
(6.33095e-05 -4.31243e-06 0 2.65341e-06 0 2.11733e-05)
(6.11038e-05 -4.48452e-06 0 3.09547e-06 0 2.3875e-05)
(5.18838e-05 -4.11155e-06 0 3.77719e-06 0 2.81394e-05)
(4.43702e-05 -3.57638e-06 0 4.32865e-06 0 3.08152e-05)
(3.74698e-05 -2.96448e-06 0 5.01261e-06 0 3.307e-05)
(3.17938e-05 -2.39823e-06 0 5.8477e-06 0 3.47265e-05)
(2.74635e-05 -1.97182e-06 0 6.85226e-06 0 3.57053e-05)
(2.4325e-05 -1.73146e-06 0 8.01343e-06 0 3.59929e-05)
(2.21e-05 -1.67634e-06 0 9.29419e-06 0 3.56899e-05)
(2.05513e-05 -1.78816e-06 0 1.06548e-05 0 3.48862e-05)
(1.9474e-05 -2.02724e-06 0 1.20502e-05 0 3.36967e-05)
(1.87486e-05 -2.35962e-06 0 1.34303e-05 0 3.2205e-05)
(1.82798e-05 -2.75336e-06 0 1.47571e-05 0 3.04833e-05)
(1.79868e-05 -3.18707e-06 0 1.59987e-05 0 2.86301e-05)
(1.78143e-05 -3.64333e-06 0 1.71269e-05 0 2.67763e-05)
(1.77487e-05 -4.11152e-06 0 1.81162e-05 0 2.50336e-05)
(1.77713e-05 -4.58088e-06 0 1.89518e-05 0 2.34302e-05)
(1.78461e-05 -5.04836e-06 0 1.96193e-05 0 2.19706e-05)
(1.79417e-05 -5.50681e-06 0 2.01128e-05 0 2.07005e-05)
(1.80617e-05 -5.93167e-06 0 2.04211e-05 0 1.96461e-05)
(1.82191e-05 -6.30114e-06 0 2.05301e-05 0 1.87807e-05)
(1.84053e-05 -6.6201e-06 0 2.04597e-05 0 1.8048e-05)
(1.85036e-05 -6.77629e-06 0 2.03614e-05 0 1.77058e-05)
(1.86388e-05 -7.03837e-06 0 2.00709e-05 0 1.71366e-05)
(1.8743e-05 -7.24819e-06 0 1.9662e-05 0 1.66599e-05)
(1.88189e-05 -7.39109e-06 0 1.91336e-05 0 1.62477e-05)
(1.88794e-05 -7.45394e-06 0 1.84988e-05 0 1.5844e-05)
(1.88945e-05 -7.43818e-06 0 1.77884e-05 0 1.54043e-05)
(1.88712e-05 -7.40118e-06 0 1.73851e-05 0 1.51341e-05)
(1.87756e-05 -7.27749e-06 0 1.65975e-05 0 1.45858e-05)
(1.85713e-05 -7.08475e-06 0 1.57693e-05 0 1.39858e-05)
(1.82256e-05 -6.83248e-06 0 1.49632e-05 0 1.33352e-05)
(1.77223e-05 -6.5242e-06 0 1.41793e-05 0 1.26776e-05)
(1.74003e-05 -6.34099e-06 0 1.3751e-05 0 1.23131e-05)
(1.67128e-05 -5.98664e-06 0 1.29852e-05 0 1.16797e-05)
(1.59153e-05 -5.59116e-06 0 1.22389e-05 0 1.11096e-05)
(1.50955e-05 -5.17091e-06 0 1.14997e-05 0 1.05571e-05)
(1.46521e-05 -4.93475e-06 0 1.11024e-05 0 1.02632e-05)
(1.38385e-05 -4.49507e-06 0 1.04068e-05 0 9.72421e-06)
(1.30384e-05 -4.04753e-06 0 9.75451e-06 0 9.22603e-06)
(1.22443e-05 -3.59753e-06 0 9.13828e-06 0 8.77593e-06)
(1.18223e-05 -3.35368e-06 0 8.81966e-06 0 8.53747e-06)
(1.10944e-05 -2.90374e-06 0 8.2532e-06 0 8.12612e-06)
(1.04382e-05 -2.46731e-06 0 7.70973e-06 0 7.77908e-06)
(9.85979e-06 -2.05163e-06 0 7.19349e-06 0 7.4814e-06)
(9.58364e-06 -1.83743e-06 0 6.93061e-06 0 7.34357e-06)
(9.13646e-06 -1.45711e-06 0 6.4742e-06 0 7.12875e-06)
(8.74054e-06 -1.09397e-06 0 6.06521e-06 0 6.94931e-06)
(8.54844e-06 -9.05258e-07 0 5.86393e-06 0 6.86654e-06)
(8.24676e-06 -5.60597e-07 0 5.50942e-06 0 6.72012e-06)
(8.05068e-06 -2.43381e-07 0 5.18366e-06 0 6.60375e-06)
(7.98336e-06 -8.93008e-08 0 5.02398e-06 0 6.56651e-06)
(7.90464e-06 1.84249e-07 0 4.74005e-06 0 6.53891e-06)
(7.88668e-06 4.28476e-07 0 4.48102e-06 0 6.54615e-06)
(7.89781e-06 5.41383e-07 0 4.35374e-06 0 6.55774e-06)
(7.95329e-06 7.30233e-07 0 4.11415e-06 0 6.60316e-06)
(7.99845e-06 8.13307e-07 0 3.99218e-06 0 6.63687e-06)
(8.11592e-06 9.4876e-07 0 3.75499e-06 0 6.72354e-06)
(8.19058e-06 1.00586e-06 0 3.63144e-06 0 6.7791e-06)
(8.36974e-06 1.099e-06 0 3.38252e-06 0 6.89855e-06)
(8.48096e-06 1.13925e-06 0 3.25057e-06 0 6.96149e-06)
(8.7405e-06 1.20711e-06 0 2.97911e-06 0 7.083e-06)
(8.89876e-06 1.23702e-06 0 2.83385e-06 0 7.14081e-06)
(9.29829e-06 1.28963e-06 0 2.52938e-06 0 7.23734e-06)
(9.56001e-06 1.31368e-06 0 2.3649e-06 0 7.27209e-06)
(1.02242e-05 1.35686e-06 0 2.01943e-06 0 7.29387e-06)
(1.0644e-05 1.37606e-06 0 1.83695e-06 0 7.27271e-06)
(1.11329e-05 1.39253e-06 0 1.65072e-06 0 7.22146e-06)
(1.16968e-05 1.40513e-06 0 1.46278e-06 0 7.13263e-06)
(1.30213e-05 1.40981e-06 0 1.09411e-06 0 6.81195e-06)
(1.37562e-05 1.39379e-06 0 9.16372e-07 0 6.55927e-06)
(1.44781e-05 1.35703e-06 0 7.48111e-07 0 6.23354e-06)
(1.50935e-05 1.29125e-06 0 5.92288e-07 0 5.82777e-06)
(1.5455e-05 1.1886e-06 0 4.52014e-07 0 5.3383e-06)
(5.00984e-06 -8.24494e-08 0 3.42198e-08 0 2.36629e-06)
(1.99769e-05 -6.65354e-07 0 3.52284e-07 0 7.88575e-06)
(3.78171e-05 -1.6732e-06 0 9.18712e-07 0 1.30727e-05)
(4.97992e-05 -2.69088e-06 0 1.5131e-06 0 1.54685e-05)
(6.13323e-05 -3.88325e-06 0 2.27436e-06 0 1.8847e-05)
(6.39205e-05 -4.46578e-06 0 2.76844e-06 0 2.1336e-05)
(5.99935e-05 -4.63755e-06 0 3.35461e-06 0 2.49719e-05)
(5.30459e-05 -4.32721e-06 0 3.79865e-06 0 2.78472e-05)
(4.50674e-05 -3.76376e-06 0 4.32574e-06 0 3.05701e-05)
(3.77086e-05 -3.10372e-06 0 4.99671e-06 0 3.2874e-05)
(3.03417e-05 -2.34389e-06 0 6.09854e-06 0 3.4895e-05)
(2.63301e-05 -1.95251e-06 0 7.17003e-06 0 3.56314e-05)
(2.34289e-05 -1.75044e-06 0 8.38577e-06 0 3.57208e-05)
(2.14581e-05 -1.7463e-06 0 9.71136e-06 0 3.52174e-05)
(2.00893e-05 -1.89653e-06 0 1.11033e-05 0 3.42618e-05)
(1.91546e-05 -2.16001e-06 0 1.25021e-05 0 3.29591e-05)
(1.85408e-05 -2.50714e-06 0 1.38649e-05 0 3.13912e-05)
(1.81533e-05 -2.9059e-06 0 1.51533e-05 0 2.96428e-05)
(1.79097e-05 -3.33415e-06 0 1.63418e-05 0 2.7818e-05)
(1.77769e-05 -3.77839e-06 0 1.74032e-05 0 2.60431e-05)
(1.77442e-05 -4.11373e-06 0 1.81006e-05 0 2.48127e-05)
(1.77669e-05 -4.56175e-06 0 1.89039e-05 0 2.32838e-05)
(1.78339e-05 -5.00996e-06 0 1.95528e-05 0 2.18809e-05)
(1.79201e-05 -5.456e-06 0 2.0042e-05 0 2.06436e-05)
(1.80294e-05 -5.8743e-06 0 2.03599e-05 0 1.96093e-05)
(1.81818e-05 -6.23904e-06 0 2.04803e-05 0 1.87562e-05)
(1.83578e-05 -6.55082e-06 0 2.04244e-05 0 1.80446e-05)
(1.85256e-05 -6.82483e-06 0 2.02291e-05 0 1.74436e-05)
(1.86072e-05 -7.00078e-06 0 2.00144e-05 0 1.70659e-05)
(1.87047e-05 -7.20285e-06 0 1.96285e-05 0 1.66135e-05)
(1.87794e-05 -7.34798e-06 0 1.91224e-05 0 1.62115e-05)
(1.88416e-05 -7.41565e-06 0 1.85003e-05 0 1.58219e-05)
(1.88557e-05 -7.40609e-06 0 1.78217e-05 0 1.54092e-05)
(1.88052e-05 -7.33378e-06 0 1.71151e-05 0 1.49355e-05)
(1.87293e-05 -7.24142e-06 0 1.65669e-05 0 1.45546e-05)
(1.85408e-05 -7.05982e-06 0 1.57652e-05 0 1.39759e-05)
(1.82086e-05 -6.81533e-06 0 1.49684e-05 0 1.33323e-05)
(1.77282e-05 -6.52315e-06 0 1.4216e-05 0 1.26986e-05)
(1.73237e-05 -6.29454e-06 0 1.36861e-05 0 1.22475e-05)
(1.66809e-05 -5.96344e-06 0 1.29693e-05 0 1.16573e-05)
(1.59007e-05 -5.58319e-06 0 1.2242e-05 0 1.11074e-05)
(1.51053e-05 -5.17365e-06 0 1.1521e-05 0 1.05662e-05)
(1.43455e-05 -4.76852e-06 0 1.08439e-05 0 1.00641e-05)
(1.37979e-05 -4.47258e-06 0 1.03847e-05 0 9.70298e-06)
(1.3028e-05 -4.04303e-06 0 9.7594e-06 0 9.2264e-06)
(1.2258e-05 -3.60494e-06 0 9.15576e-06 0 8.78854e-06)
(1.15432e-05 -3.18627e-06 0 8.61322e-06 0 8.38196e-06)
(1.10657e-05 -2.88694e-06 0 8.23886e-06 0 8.11408e-06)
(1.04327e-05 -2.46616e-06 0 7.71548e-06 0 7.77994e-06)
(9.88064e-06 -2.06788e-06 0 7.2192e-06 0 7.4945e-06)
(9.54392e-06 -1.80578e-06 0 6.89836e-06 0 7.32673e-06)
(9.12997e-06 -1.45219e-06 0 6.47302e-06 0 7.12797e-06)
(8.74791e-06 -1.10208e-06 0 6.07911e-06 0 6.95485e-06)
(8.51075e-06 -8.6904e-07 0 5.83072e-06 0 6.85336e-06)
(8.23708e-06 -5.54393e-07 0 5.50772e-06 0 6.7211e-06)
(8.04962e-06 -2.51057e-07 0 5.19697e-06 0 6.60713e-06)
(7.96963e-06 -6.29308e-08 0 5.00094e-06 0 6.56241e-06)
(7.8977e-06 1.86133e-07 0 4.74056e-06 0 6.53829e-06)
(7.88008e-06 4.1465e-07 0 4.4972e-06 0 6.5451e-06)
(7.89389e-06 5.50497e-07 0 4.34318e-06 0 6.55916e-06)
(7.94595e-06 7.25389e-07 0 4.11909e-06 0 6.60245e-06)
(8.00155e-06 8.25035e-07 0 3.97027e-06 0 6.64404e-06)
(8.10803e-06 9.46409e-07 0 3.75503e-06 0 6.72241e-06)
(8.20235e-06 1.0152e-06 0 3.60194e-06 0 6.79212e-06)
(8.36353e-06 1.0968e-06 0 3.38022e-06 0 6.89894e-06)
(8.50171e-06 1.14485e-06 0 3.21873e-06 0 6.97579e-06)
(8.73315e-06 1.20425e-06 0 2.97796e-06 0 7.08306e-06)
(8.92267e-06 1.23911e-06 0 2.80641e-06 0 7.15035e-06)
(9.2806e-06 1.28574e-06 0 2.53635e-06 0 7.23514e-06)
(9.58071e-06 1.31337e-06 0 2.34902e-06 0 7.27441e-06)
(1.01604e-05 1.35167e-06 0 2.0479e-06 0 7.29441e-06)
(1.06324e-05 1.37419e-06 0 1.84064e-06 0 7.27381e-06)
(1.11775e-05 1.39257e-06 0 1.63492e-06 0 7.21603e-06)
(1.18162e-05 1.40596e-06 0 1.42725e-06 0 7.11064e-06)
(1.29581e-05 1.40983e-06 0 1.11283e-06 0 6.83259e-06)
(1.37498e-05 1.39411e-06 0 9.21461e-07 0 6.56592e-06)
(1.45149e-05 1.35547e-06 0 7.43995e-07 0 6.22188e-06)
(1.51494e-05 1.28521e-06 0 5.82667e-07 0 5.79443e-06)
(1.54894e-05 1.17603e-06 0 4.39983e-07 0 5.28336e-06)
(4.38315e-06 -1.00218e-07 0 4.0972e-08 0 2.41286e-06)
(1.85638e-05 -8.16111e-07 0 3.87483e-07 0 7.71662e-06)
(3.65186e-05 -1.96215e-06 0 9.95768e-07 0 1.27497e-05)
(4.82621e-05 -2.9578e-06 0 1.56042e-06 0 1.50699e-05)
(6.07528e-05 -4.20341e-06 0 2.39951e-06 0 1.87209e-05)
(6.38238e-05 -4.7774e-06 0 2.89861e-06 0 2.10734e-05)
(6.035e-05 -4.98787e-06 0 3.57472e-06 0 2.4939e-05)
(5.4121e-05 -4.69961e-06 0 4.0077e-06 0 2.76392e-05)
(4.67207e-05 -4.16501e-06 0 4.50155e-06 0 3.02219e-05)
(3.64722e-05 -3.2026e-06 0 5.45341e-06 0 3.33594e-05)
(3.10723e-05 -2.61727e-06 0 6.27634e-06 0 3.47419e-05)
(2.6995e-05 -2.19379e-06 0 7.2758e-06 0 3.54516e-05)
(2.39798e-05 -1.94921e-06 0 8.41977e-06 0 3.55479e-05)
(2.18688e-05 -1.89731e-06 0 9.68639e-06 0 3.50846e-05)
(2.03753e-05 -2.00169e-06 0 1.10303e-05 0 3.41724e-05)
(1.93525e-05 -2.2317e-06 0 1.24003e-05 0 3.29001e-05)
(1.86694e-05 -2.5525e-06 0 1.37515e-05 0 3.13509e-05)
(1.82278e-05 -2.93258e-06 0 1.50442e-05 0 2.96054e-05)
(1.79527e-05 -3.35001e-06 0 1.62474e-05 0 2.77697e-05)
(1.78021e-05 -3.79058e-06 0 1.73311e-05 0 2.59702e-05)
(1.77611e-05 -4.24317e-06 0 1.82726e-05 0 2.42941e-05)
(1.77954e-05 -4.7004e-06 0 1.90577e-05 0 2.27496e-05)
(1.78309e-05 -4.94471e-06 0 1.94096e-05 0 2.19967e-05)
(1.7914e-05 -5.39908e-06 0 1.99336e-05 0 2.07093e-05)
(1.80215e-05 -5.82356e-06 0 2.02739e-05 0 1.96388e-05)
(1.81677e-05 -6.19372e-06 0 2.04144e-05 0 1.87599e-05)
(1.83414e-05 -6.51474e-06 0 2.03713e-05 0 1.80221e-05)
(1.85078e-05 -6.79905e-06 0 2.01751e-05 0 1.73939e-05)
(1.86225e-05 -7.04149e-06 0 1.98487e-05 0 1.68677e-05)
(1.86774e-05 -7.15472e-06 0 1.96239e-05 0 1.66175e-05)
(1.87553e-05 -7.30747e-06 0 1.91149e-05 0 1.61992e-05)
(1.88157e-05 -7.38134e-06 0 1.84964e-05 0 1.58012e-05)
(1.88317e-05 -7.37571e-06 0 1.78005e-05 0 1.53774e-05)
(1.87736e-05 -7.30072e-06 0 1.70546e-05 0 1.48815e-05)
(1.87139e-05 -7.22871e-06 0 1.66146e-05 0 1.45767e-05)
(1.8518e-05 -7.04409e-06 0 1.57906e-05 0 1.39859e-05)
(1.81871e-05 -6.80014e-06 0 1.49829e-05 0 1.33413e-05)
(1.77036e-05 -6.50181e-06 0 1.42001e-05 0 1.26831e-05)
(1.70933e-05 -6.1668e-06 0 1.34265e-05 0 1.20246e-05)
(1.66996e-05 -5.96766e-06 0 1.30036e-05 0 1.16789e-05)
(1.59115e-05 -5.57992e-06 0 1.22594e-05 0 1.1112e-05)
(1.50984e-05 -5.16693e-06 0 1.15233e-05 0 1.05629e-05)
(1.42918e-05 -4.73757e-06 0 1.08054e-05 0 1.00306e-05)
(1.38389e-05 -4.49333e-06 0 1.04237e-05 0 9.73191e-06)
(1.30414e-05 -4.04893e-06 0 9.77408e-06 0 9.2366e-06)
(1.22534e-05 -3.60134e-06 0 9.1597e-06 0 8.78726e-06)
(1.14926e-05 -3.15394e-06 0 8.5783e-06 0 8.35583e-06)
(1.10991e-05 -2.90685e-06 0 8.26808e-06 0 8.13407e-06)
(1.04416e-05 -2.47241e-06 0 7.72698e-06 0 7.78709e-06)
(9.86501e-06 -2.05795e-06 0 7.21159e-06 0 7.48926e-06)
(9.58412e-06 -1.8394e-06 0 6.94311e-06 0 7.34839e-06)
(9.13936e-06 -1.45965e-06 0 6.48703e-06 0 7.1348e-06)
(8.74465e-06 -1.09813e-06 0 6.07803e-06 0 6.95506e-06)
(8.39695e-06 -7.46268e-07 0 5.70643e-06 0 6.80268e-06)
(8.24561e-06 -5.64082e-07 0 5.52016e-06 0 6.72591e-06)
(8.04764e-06 -2.4788e-07 0 5.19523e-06 0 6.60934e-06)
(7.97891e-06 -9.15047e-08 0 5.03281e-06 0 6.56977e-06)
(7.89808e-06 1.80335e-07 0 4.74845e-06 0 6.53956e-06)
(7.87821e-06 4.23256e-07 0 4.48826e-06 0 6.54561e-06)
(7.88909e-06 5.37336e-07 0 4.35856e-06 0 6.55752e-06)
(7.94374e-06 7.24983e-07 0 4.11802e-06 0 6.60287e-06)
(7.98874e-06 8.08484e-07 0 3.99408e-06 0 6.63698e-06)
(8.10437e-06 9.4314e-07 0 3.75609e-06 0 6.72267e-06)
(8.25994e-06 1.04848e-06 0 3.5117e-06 0 6.83505e-06)
(8.35881e-06 1.0939e-06 0 3.3815e-06 0 6.89777e-06)
(8.59072e-06 1.16928e-06 0 3.1181e-06 0 7.02098e-06)
(8.73159e-06 1.20244e-06 0 2.97642e-06 0 7.08251e-06)
(8.89169e-06 1.23265e-06 0 2.83009e-06 0 7.14085e-06)
(9.29438e-06 1.28559e-06 0 2.52564e-06 0 7.23739e-06)
(9.55978e-06 1.31008e-06 0 2.36031e-06 0 7.27208e-06)
(1.02285e-05 1.35409e-06 0 2.01557e-06 0 7.29359e-06)
(1.0654e-05 1.3738e-06 0 1.83265e-06 0 7.272e-06)
(1.11486e-05 1.39072e-06 0 1.64627e-06 0 7.22019e-06)
(1.17195e-05 1.40372e-06 0 1.45827e-06 0 7.13003e-06)
(1.30553e-05 1.40903e-06 0 1.09107e-06 0 6.80691e-06)
(1.37982e-05 1.39317e-06 0 9.13586e-07 0 6.55235e-06)
(1.45267e-05 1.35635e-06 0 7.45688e-07 0 6.22482e-06)
(1.5146e-05 1.29033e-06 0 5.90336e-07 0 5.81748e-06)
(1.55072e-05 1.18733e-06 0 4.50531e-07 0 5.3269e-06)
(2.92604e-06 -3.16669e-07 0 1.24123e-07 0 2.84301e-06)
(1.2792e-05 -1.66653e-06 0 6.31083e-07 0 7.38044e-06)
(2.95532e-05 -3.47901e-06 0 1.46788e-06 0 1.15163e-05)
(4.81288e-05 -5.30632e-06 0 2.5636e-06 0 1.55203e-05)
(5.75976e-05 -6.26374e-06 0 3.3447e-06 0 1.8111e-05)
(6.56409e-05 -7.3225e-06 0 4.37282e-06 0 2.13675e-05)
(6.58581e-05 -7.55368e-06 0 4.92458e-06 0 2.35665e-05)
(5.99633e-05 -7.20586e-06 0 5.5144e-06 0 2.68954e-05)
(5.31248e-05 -6.5492e-06 0 5.84051e-06 0 2.91151e-05)
(4.56931e-05 -5.70342e-06 0 6.18702e-06 0 3.11025e-05)
(3.87368e-05 -4.79625e-06 0 6.62458e-06 0 3.26878e-05)
(3.28638e-05 -3.96366e-06 0 7.21677e-06 0 3.37309e-05)
(2.82698e-05 -3.30327e-06 0 7.99171e-06 0 3.42037e-05)
(2.48811e-05 -2.86183e-06 0 8.95474e-06 0 3.41307e-05)
(2.24194e-05 -2.63229e-06 0 1.00722e-05 0 3.35702e-05)
(2.07234e-05 -2.59987e-06 0 1.13017e-05 0 3.25826e-05)
(1.95549e-05 -2.71483e-06 0 1.25877e-05 0 3.12677e-05)
(1.87718e-05 -2.93725e-06 0 1.3875e-05 0 2.97046e-05)
(1.82796e-05 -3.23182e-06 0 1.51103e-05 0 2.79955e-05)
(1.79889e-05 -3.57764e-06 0 1.62572e-05 0 2.62496e-05)
(1.78487e-05 -3.95998e-06 0 1.72839e-05 0 2.45651e-05)
(1.78076e-05 -4.36604e-06 0 1.81679e-05 0 2.2996e-05)
(1.78243e-05 -4.78865e-06 0 1.88943e-05 0 2.15719e-05)
(1.78737e-05 -5.21283e-06 0 1.94545e-05 0 2.03217e-05)
(1.79216e-05 -5.48337e-06 0 1.97298e-05 0 1.96078e-05)
(1.8026e-05 -5.84812e-06 0 1.99759e-05 0 1.86927e-05)
(1.81545e-05 -6.16953e-06 0 2.00344e-05 0 1.79425e-05)
(1.83021e-05 -6.45674e-06 0 1.99296e-05 0 1.73048e-05)
(1.8419e-05 -6.70704e-06 0 1.96797e-05 0 1.67679e-05)
(1.85045e-05 -6.91381e-06 0 1.9319e-05 0 1.63122e-05)
(1.85549e-05 -7.03021e-06 0 1.90118e-05 0 1.60295e-05)
(1.86148e-05 -7.13616e-06 0 1.84636e-05 0 1.56442e-05)
(1.86403e-05 -7.16469e-06 0 1.78256e-05 0 1.52705e-05)
(1.859e-05 -7.12882e-06 0 1.7133e-05 0 1.48444e-05)
(1.84743e-05 -7.01534e-06 0 1.63802e-05 0 1.43462e-05)
(1.83422e-05 -6.9021e-06 0 1.58413e-05 0 1.39694e-05)
(1.8057e-05 -6.68864e-06 0 1.50487e-05 0 1.33602e-05)
(1.76457e-05 -6.42525e-06 0 1.42741e-05 0 1.27163e-05)
(1.70865e-05 -6.12104e-06 0 1.35273e-05 0 1.20662e-05)
(1.66399e-05 -5.89451e-06 0 1.30362e-05 0 1.16551e-05)
(1.58966e-05 -5.5357e-06 0 1.23209e-05 0 1.11099e-05)
(1.51118e-05 -5.15289e-06 0 1.16056e-05 0 1.05827e-05)
(1.43398e-05 -4.75025e-06 0 1.09059e-05 0 1.00797e-05)
(1.3821e-05 -4.47357e-06 0 1.04578e-05 0 9.73988e-06)
(1.30551e-05 -4.05121e-06 0 9.83098e-06 0 9.2668e-06)
(1.22906e-05 -3.61686e-06 0 9.23518e-06 0 8.82921e-06)
(1.15605e-05 -3.18899e-06 0 8.66771e-06 0 8.41496e-06)
(1.11052e-05 -2.90704e-06 0 8.30637e-06 0 8.15223e-06)
(1.0458e-05 -2.49071e-06 0 7.7849e-06 0 7.81238e-06)
(9.8894e-06 -2.08882e-06 0 7.28454e-06 0 7.5201e-06)
(9.41477e-06 -1.70559e-06 0 6.81404e-06 0 7.28203e-06)
(9.14721e-06 -1.46701e-06 0 6.52813e-06 0 7.15361e-06)
(8.76667e-06 -1.11743e-06 0 6.12682e-06 0 6.97716e-06)
(8.42518e-06 -7.80884e-07 0 5.76687e-06 0 6.82821e-06)
(8.24418e-06 -5.74228e-07 0 5.55319e-06 0 6.7416e-06)
(8.04365e-06 -2.69945e-07 0 5.23849e-06 0 6.6301e-06)
(7.92427e-06 8.3504e-09 0 4.9476e-06 0 6.56171e-06)
(7.87811e-06 1.6706e-07 0 4.77756e-06 0 6.54322e-06)
(7.85075e-06 3.99132e-07 0 4.52124e-06 0 6.54288e-06)
(7.85926e-06 5.25628e-07 0 4.37291e-06 0 6.55544e-06)
(7.90838e-06 7.03839e-07 0 4.13648e-06 0 6.59907e-06)
(7.95669e-06 7.93926e-07 0 3.9966e-06 0 6.63733e-06)
(8.06432e-06 9.21557e-07 0 3.76199e-06 0 6.72016e-06)
(8.21166e-06 1.02463e-06 0 3.52206e-06 0 6.8271e-06)
(8.31988e-06 1.07491e-06 0 3.37881e-06 0 6.8945e-06)
(8.54724e-06 1.14907e-06 0 3.12157e-06 0 7.01261e-06)
(8.69993e-06 1.1852e-06 0 2.96909e-06 0 7.07892e-06)
(8.8744e-06 1.21763e-06 0 2.81291e-06 0 7.14184e-06)
(9.27661e-06 1.27011e-06 0 2.51682e-06 0 7.23663e-06)
(9.56279e-06 1.29695e-06 0 2.34321e-06 0 7.27305e-06)
(1.02308e-05 1.34245e-06 0 2.00947e-06 0 7.29352e-06)
(1.06865e-05 1.3646e-06 0 1.82068e-06 0 7.27074e-06)
(1.12162e-05 1.38376e-06 0 1.6297e-06 0 7.21509e-06)
(1.18239e-05 1.39869e-06 0 1.43875e-06 0 7.11856e-06)
(1.31739e-05 1.40673e-06 0 1.08461e-06 0 6.79448e-06)
(1.39573e-05 1.39186e-06 0 9.0591e-07 0 6.53154e-06)
(1.47205e-05 1.35501e-06 0 7.37696e-07 0 6.19522e-06)
(1.53615e-05 1.288e-06 0 5.83031e-07 0 5.77993e-06)
(1.57248e-05 1.18331e-06 0 4.4436e-07 0 5.28311e-06)
(2.71432e-06 -2.99599e-07 0 1.21292e-07 0 2.65995e-06)
(1.22579e-05 -1.61278e-06 0 6.18092e-07 0 7.13853e-06)
(2.84178e-05 -3.41088e-06 0 1.47461e-06 0 1.1301e-05)
(4.66467e-05 -5.29527e-06 0 2.61256e-06 0 1.53766e-05)
(5.62463e-05 -6.30689e-06 0 3.41855e-06 0 1.79058e-05)
(6.49617e-05 -7.47125e-06 0 4.49719e-06 0 2.11695e-05)
(6.58335e-05 -7.78154e-06 0 5.07768e-06 0 2.33359e-05)
(6.06722e-05 -7.51332e-06 0 5.70668e-06 0 2.66654e-05)
(5.4274e-05 -6.89661e-06 0 6.03842e-06 0 2.88631e-05)
(4.70849e-05 -6.0688e-06 0 6.37185e-06 0 3.08456e-05)
(4.01494e-05 -5.15713e-06 0 6.77869e-06 0 3.24558e-05)
(3.16579e-05 -3.93444e-06 0 7.64929e-06 0 3.38698e-05)
(2.7452e-05 -3.32019e-06 0 8.44869e-06 0 3.41226e-05)
(2.4285e-05 -2.9125e-06 0 9.4208e-06 0 3.38775e-05)
(2.20183e-05 -2.71918e-06 0 1.05395e-05 0 3.31676e-05)
(2.04484e-05 -2.71033e-06 0 1.1758e-05 0 3.20737e-05)
(1.93662e-05 -2.84149e-06 0 1.30244e-05 0 3.06742e-05)
(1.89444e-05 -2.95193e-06 0 1.36961e-05 0 2.98446e-05)
(1.8386e-05 -3.22725e-06 0 1.49344e-05 0 2.81448e-05)
(1.80491e-05 -3.55946e-06 0 1.60961e-05 0 2.63885e-05)
(1.78802e-05 -3.93378e-06 0 1.71461e-05 0 2.46758e-05)
(1.78227e-05 -4.33672e-06 0 1.80552e-05 0 2.3071e-05)
(1.78304e-05 -4.76162e-06 0 1.88045e-05 0 2.16115e-05)
(1.78753e-05 -5.19025e-06 0 1.93854e-05 0 2.03274e-05)
(1.79528e-05 -5.5921e-06 0 1.97788e-05 0 1.92567e-05)
(1.80128e-05 -5.79506e-06 0 1.99116e-05 0 1.87565e-05)
(1.81406e-05 -6.12563e-06 0 1.99919e-05 0 1.79688e-05)
(1.82835e-05 -6.42073e-06 0 1.99e-05 0 1.73122e-05)
(1.84011e-05 -6.67613e-06 0 1.9655e-05 0 1.67583e-05)
(1.84894e-05 -6.88903e-06 0 1.92883e-05 0 1.62881e-05)
(1.85337e-05 -6.99181e-06 0 1.9032e-05 0 1.60467e-05)
(1.85953e-05 -7.108e-06 0 1.84809e-05 0 1.56444e-05)
(1.86229e-05 -7.14276e-06 0 1.78362e-05 0 1.52623e-05)
(1.85742e-05 -7.10852e-06 0 1.71332e-05 0 1.48322e-05)
(1.84541e-05 -6.99555e-06 0 1.63607e-05 0 1.43244e-05)
(1.83411e-05 -6.89904e-06 0 1.58929e-05 0 1.40004e-05)
(1.80535e-05 -6.68402e-06 0 1.50808e-05 0 1.3381e-05)
(1.76395e-05 -6.41808e-06 0 1.42892e-05 0 1.27267e-05)
(1.70752e-05 -6.10975e-06 0 1.35224e-05 0 1.20603e-05)
(1.66836e-05 -5.91161e-06 0 1.30879e-05 0 1.1695e-05)
(1.59242e-05 -5.54408e-06 0 1.23512e-05 0 1.11271e-05)
(1.51231e-05 -5.15497e-06 0 1.16223e-05 0 1.059e-05)
(1.43336e-05 -4.74511e-06 0 1.09069e-05 0 1.0076e-05)
(1.38714e-05 -4.49941e-06 0 1.05062e-05 0 9.77472e-06)
(1.30832e-05 -4.06578e-06 0 9.85629e-06 0 9.28494e-06)
(1.23017e-05 -3.62225e-06 0 9.24656e-06 0 8.8366e-06)
(1.15525e-05 -3.18284e-06 0 8.66425e-06 0 8.41152e-06)
(1.11437e-05 -2.93021e-06 0 8.33952e-06 0 8.17541e-06)
(1.04756e-05 -2.50172e-06 0 7.80152e-06 0 7.82189e-06)
(9.88968e-06 -2.08979e-06 0 7.2886e-06 0 7.52158e-06)
(9.40016e-06 -1.69398e-06 0 6.80286e-06 0 7.2764e-06)
(9.1602e-06 -1.47954e-06 0 6.54573e-06 0 7.16096e-06)
(8.76862e-06 -1.1192e-06 0 6.13154e-06 0 6.97961e-06)
(8.41742e-06 -7.72408e-07 0 5.75957e-06 0 6.8252e-06)
(8.25345e-06 -5.85638e-07 0 5.56619e-06 0 6.74682e-06)
(8.04389e-06 -2.71245e-07 0 5.24146e-06 0 6.6314e-06)
(7.92012e-06 1.59798e-08 0 4.94081e-06 0 6.56133e-06)
(7.87839e-06 1.60543e-07 0 4.78565e-06 0 6.54444e-06)
(7.84927e-06 4.00393e-07 0 4.5202e-06 0 6.54278e-06)
(7.85633e-06 5.16903e-07 0 4.38333e-06 0 6.55395e-06)
(7.90569e-06 7.01894e-07 0 4.13819e-06 0 6.59842e-06)
(7.99695e-06 8.51638e-07 0 3.89479e-06 0 6.67028e-06)
(8.06033e-06 9.1886e-07 0 3.76471e-06 0 6.71915e-06)
(8.21288e-06 1.02537e-06 0 3.51627e-06 0 6.82975e-06)
(8.31522e-06 1.07278e-06 0 3.38118e-06 0 6.89319e-06)
(8.55052e-06 1.14931e-06 0 3.11514e-06 0 7.01504e-06)