/*--------------------------------*- C++ -*----------------------------------*\
  =========                 |
  \\      /  F ield         | OpenFOAM: The Open Source CFD Toolbox
   \\    /   O peration     | Website:  https://openfoam.org
    \\  /    A nd           | Version:  7
     \\/     M anipulation  |
\*---------------------------------------------------------------------------*/
FoamFile
{
    version     2.0;
    format      ascii;
    class       volVectorField;
    location    "0";
    object      UDNS;
}
// * * * * * * * * * * * * * * * * * * * * * * * * * * * * * * * * * * * * * //

dimensions      [0 1 -1 0 0 0 0];

internalField   nonuniform List<vector> 
10981
(
(0.000966181 -8.86407e-07 5.95425e-06)
(0.00335403 -1.19412e-05 1.5255e-05)
(0.00543891 -1.52944e-05 2.05351e-05)
(0.00962019 1.30991e-05 2.65318e-05)
(0.0145087 0.000105348 2.88737e-05)
(0.017801 0.00021666 2.68967e-05)
(0.0208006 0.000356443 2.07288e-05)
(0.0243807 0.000601964 1.85228e-06)
(0.0260508 0.000760099 -1.52501e-05)
(0.0271892 0.000900496 -3.1061e-05)
(0.027909 0.00101752 -4.25374e-05)
(0.0283371 0.00111247 -4.88036e-05)
(0.0285723 0.00118989 -4.95887e-05)
(0.0286902 0.00125402 -4.635e-05)
(0.0287319 0.00130968 -4.01903e-05)
(0.0287291 0.00135897 -3.1191e-05)
(0.028697 0.0014026 -1.98817e-05)
(0.0286477 0.00144171 -9.06848e-06)
(0.0285878 0.00147743 -7.89773e-07)
(0.0285194 0.00150837 5.54294e-06)
(0.0284457 0.00153376 9.98178e-06)
(0.0283755 0.00155389 1.39397e-05)
(0.0283141 0.001568 1.85059e-05)
(0.028264 0.00157569 2.32569e-05)
(0.0282213 0.00157638 2.76119e-05)
(0.0281829 0.00157088 2.86121e-05)
(0.0281508 0.00155803 2.32943e-05)
(0.0281384 0.0015477 2.05207e-05)
(0.0281319 0.00152473 2.23719e-05)
(0.0281453 0.00149638 3.32332e-05)
(0.0281818 0.00146388 4.78827e-05)
(0.0282381 0.00142731 5.77621e-05)
(0.0283079 0.00138662 5.79035e-05)
(0.0283578 0.00136088 5.66041e-05)
(0.0284519 0.00131588 5.28178e-05)
(0.0285548 0.00126914 4.67713e-05)
(0.0286691 0.00122159 4.66889e-05)
(0.0287911 0.00117338 4.6955e-05)
(0.0288668 0.00114345 4.45495e-05)
(0.0289979 0.00109399 3.68476e-05)
(0.0291278 0.00104483 2.82109e-05)
(0.0292527 0.000995428 2.22411e-05)
(0.0293248 0.000965163 2.24598e-05)
(0.0294368 0.000915598 3.11248e-05)
(0.029537 0.00086616 4.05328e-05)
(0.0296199 0.000817288 4.63881e-05)
(0.0296611 0.000788285 4.91947e-05)
(0.0297155 0.000740895 5.60545e-05)
(0.0297534 0.000694104 6.64363e-05)
(0.0297717 0.000647939 7.67524e-05)
(0.0297697 0.000621158 8.07873e-05)
(0.0297412 0.000576435 8.48154e-05)
(0.0296838 0.000532802 9.03036e-05)
(0.0296396 0.000508323 9.52552e-05)
(0.0295447 0.000467203 0.000106064)
(0.0294249 0.000427041 0.000115866)
(0.0293458 0.000404873 0.000120427)
(0.0291852 0.000366758 0.000126347)
(0.0290007 0.000329666 0.000128124)
(0.0288908 0.000309737 0.000127677)
(0.0286798 0.00027443 0.000126011)
(0.0285592 0.000255688 0.000125022)
(0.0283249 0.000222069 0.000122964)
(0.0281931 0.000204497 0.000121618)
(0.0279318 0.000172841 0.000118998)
(0.0277853 0.000156716 0.000117965)
(0.0274882 0.00012756 0.000116747)
(0.0273199 0.00011301 0.000116242)
(0.0269618 8.67175e-05 0.000114929)
(0.0267508 7.38964e-05 0.000113809)
(0.0262754 5.08491e-05 0.000110645)
(0.0259838 3.99522e-05 0.000108598)
(0.025649 2.98392e-05 0.000106309)
(0.0252594 2.0563e-05 0.000103754)
(0.0242786 5.10282e-06 9.7652e-05)
(0.0236252 -1.1801e-06 9.37398e-05)
(0.0228303 -6.25641e-06 8.91519e-05)
(0.0218563 -9.96886e-06 8.3797e-05)
(0.0206621 -1.22951e-05 7.75806e-05)
(0.00096741 -5.69524e-07 5.96846e-06)
(0.00335163 -1.06641e-05 1.52372e-05)
(0.00546324 -1.29082e-05 2.05352e-05)
(0.00964305 1.84076e-05 2.64974e-05)
(0.0145118 0.000113433 2.88323e-05)
(0.0178472 0.000228649 2.68512e-05)
(0.0208839 0.000373058 2.05353e-05)
(0.0244025 0.000617822 1.85684e-06)
(0.0260849 0.000778688 -1.53901e-05)
(0.0272259 0.000920928 -3.13212e-05)
(0.0279417 0.00103874 -4.28153e-05)
(0.0283636 0.0011335 -4.89648e-05)
(0.0285918 0.00121039 -4.95181e-05)
(0.0287043 0.00127386 -4.61063e-05)
(0.0287417 0.00132874 -3.98196e-05)
(0.0287357 0.00137707 -3.06713e-05)
(0.0287014 0.00141973 -1.92666e-05)
(0.0286506 0.00145791 -8.57528e-06)
(0.0285898 0.00149264 -4.4321e-07)
(0.0285207 0.00152248 5.76e-06)
(0.0284466 0.00154669 1.00663e-05)
(0.0283767 0.00156584 1.3977e-05)
(0.0283154 0.00157899 1.85107e-05)
(0.0282654 0.00158588 2.31675e-05)
(0.0282226 0.00158572 2.74807e-05)
(0.0281843 0.00157955 2.87796e-05)
(0.0281521 0.00156637 2.36383e-05)
(0.0281371 0.00155384 2.0351e-05)
(0.0281311 0.00153087 2.24783e-05)
(0.0281442 0.00150271 3.33736e-05)
(0.0281802 0.00147013 4.79824e-05)
(0.0282355 0.00143319 5.78889e-05)
(0.0283032 0.00139266 5.80328e-05)
(0.0283598 0.00136318 5.6531e-05)
(0.0284518 0.00131939 5.27814e-05)
(0.0285531 0.00127337 4.65335e-05)
(0.0286659 0.00122569 4.673e-05)
(0.0287852 0.00117791 4.70965e-05)
(0.0288698 0.00114427 4.43879e-05)
(0.028998 0.00109645 3.67382e-05)
(0.0291261 0.00104795 2.81667e-05)
(0.029249 0.000998732 2.21526e-05)
(0.0293294 0.000964542 2.25823e-05)
(0.0294375 0.000916864 3.13373e-05)
(0.0295357 0.000868477 4.05976e-05)
(0.0296173 0.000820094 4.63375e-05)
(0.0296633 0.000787356 4.9404e-05)
(0.0297149 0.000741861 5.61449e-05)
(0.0297519 0.000696089 6.63876e-05)
(0.0297703 0.000650916 7.65184e-05)
(0.029768 0.000620885 8.1033e-05)
(0.0297395 0.000577705 8.47748e-05)
(0.0296839 0.00053515 9.00484e-05)
(0.029634 0.000507499 9.57156e-05)
(0.0295418 0.000468088 0.000106227)
(0.0294264 0.000429218 0.000115692)
(0.0293371 0.000404185 0.000120816)
(0.0291824 0.00036773 0.000126449)
(0.0290061 0.000332143 0.000128179)
(0.0288826 0.000309734 0.000127665)
(0.0286811 0.000276007 0.000126057)
(0.0285462 0.000255042 0.000124944)
(0.0283232 0.000223108 0.000122989)
(0.028177 0.000203619 0.000121489)
(0.0279289 0.000173651 0.000118995)
(0.0277683 0.000155988 0.000117888)
(0.0274867 0.000128423 0.000116763)
(0.0273045 0.000112677 0.000116225)
(0.0269658 8.78145e-05 0.000114988)
(0.0267408 7.40905e-05 0.000113789)
(0.0262918 5.21927e-05 0.000110787)
(0.0259871 4.06638e-05 0.00010864)
(0.0256372 3.00614e-05 0.000106242)
(0.0252317 2.046e-05 0.000103586)
(0.0243015 5.76231e-06 9.77973e-05)
(0.0236352 -7.61523e-07 9.38022e-05)
(0.022826 -5.9837e-06 8.91285e-05)
(0.021837 -9.77764e-06 8.36937e-05)
(0.0206282 -1.21284e-05 7.74095e-05)
(0.000868399 -1.35172e-05 5.66463e-06)
(0.00318362 -5.2495e-05 1.4907e-05)
(0.00512231 -8.45329e-05 2.0455e-05)
(0.00890914 -0.000127927 2.67907e-05)
(0.0132757 -0.000139968 2.96176e-05)
(0.0162749 -0.000112097 2.85282e-05)
(0.0191007 -5.4867e-05 2.43626e-05)
(0.0227268 8.98327e-05 9.63217e-06)
(0.0246023 0.000205486 -5.79387e-06)
(0.0260065 0.000325892 -2.18715e-05)
(0.0270008 0.000439755 -3.53931e-05)
(0.0276586 0.000543659 -4.51918e-05)
(0.0280638 0.000634885 -4.99864e-05)
(0.0283012 0.000714467 -4.93928e-05)
(0.0284277 0.000785171 -4.43528e-05)
(0.0284842 0.000849085 -3.62129e-05)
(0.0284952 0.000908192 -2.55393e-05)
(0.0284791 0.000962618 -1.39926e-05)
(0.0284469 0.00101347 -4.44174e-06)
(0.0284031 0.0010602 3.28287e-06)
(0.0283512 0.00110237 9.28635e-06)
(0.0282999 0.00113962 1.3885e-05)
(0.028257 0.00117183 1.852e-05)
(0.0282244 0.00119849 2.46089e-05)
(0.028198 0.00121856 2.95956e-05)
(0.0281742 0.00123245 2.98738e-05)
(0.0281559 0.00123914 2.29993e-05)
(0.0281511 0.00124164 1.92732e-05)
(0.0281547 0.00123812 1.89069e-05)
(0.0281756 0.00122826 2.8499e-05)
(0.0282179 0.00121298 4.3004e-05)
(0.0282804 0.00119287 5.45754e-05)
(0.0283566 0.00116791 5.65711e-05)
(0.0284042 0.00115386 5.61672e-05)
(0.0285027 0.00112328 5.39766e-05)
(0.028609 0.00108947 4.73123e-05)
(0.0287253 0.00105347 4.62356e-05)
(0.0288504 0.00101613 4.76301e-05)
(0.0289207 0.000995796 4.60107e-05)
(0.0290551 0.000956282 3.89272e-05)
(0.029188 0.000915799 2.97204e-05)
(0.0293167 0.000874251 2.26583e-05)
(0.0293837 0.000851458 2.20708e-05)
(0.0294993 0.000809254 3.01186e-05)
(0.0296033 0.000766617 3.99037e-05)
(0.029689 0.000723718 4.63979e-05)
(0.0297275 0.000700704 4.91161e-05)
(0.0297848 0.000658785 5.6328e-05)
(0.0298259 0.000616975 6.67822e-05)
(0.0298465 0.00057528 7.70735e-05)
(0.0298461 0.000553397 8.10726e-05)
(0.0298201 0.000512837 8.55887e-05)
(0.029763 0.00047306 9.08483e-05)
(0.0297224 0.000452613 9.49786e-05)
(0.0296282 0.000414959 0.000105171)
(0.0295092 0.00037811 0.000115003)
(0.0294357 0.00035921 0.000119244)
(0.0292752 0.00032394 0.00012535)
(0.0290904 0.000289603 0.00012734)
(0.0289869 0.000272239 0.000127023)
(0.0287759 0.000239373 0.000125568)
(0.0286614 0.00022285 0.000124728)
(0.0284271 0.000191503 0.000122674)
(0.0283005 0.000175869 0.000121341)
(0.028038 0.000146353 0.000118739)
(0.0278958 0.000131892 0.000117759)
(0.0275965 0.000104754 0.000116374)
(0.0274315 9.16485e-05 0.000115746)
(0.0270696 6.72978e-05 0.000114369)
(0.0268615 5.57639e-05 0.000113399)
(0.026379 3.46874e-05 0.000110602)
(0.0260887 2.50024e-05 0.00010874)
(0.0257541 1.6044e-05 0.000106569)
(0.0253633 7.92746e-06 0.000104094)
(0.0243627 -5.445e-06 9.80059e-05)
(0.0237035 -1.0602e-05 9.41044e-05)
(0.0229005 -1.44893e-05 8.94917e-05)
(0.0219167 -1.70898e-05 8.40758e-05)
(0.0207115 -1.82808e-05 7.77765e-05)
(0.000949068 -1.18111e-05 5.76905e-06)
(0.00328143 -5.27857e-05 1.53121e-05)
(0.00629495 -0.000107591 2.32712e-05)
(0.00903883 -0.000152512 2.74537e-05)
(0.013133 -0.000184187 3.00302e-05)
(0.0162382 -0.000171573 2.8703e-05)
(0.020054 -0.000100195 2.203e-05)
(0.0225166 -5.10349e-06 1.08932e-05)
(0.0245011 0.000110488 -5.37597e-06)
(0.0259755 0.000233092 -2.23252e-05)
(0.0272233 0.000382184 -3.9665e-05)
(0.0277917 0.000485348 -4.81501e-05)
(0.0281405 0.000574421 -5.11792e-05)
(0.0283313 0.00065284 -4.83294e-05)
(0.0284285 0.000722041 -4.16003e-05)
(0.0284668 0.000786524 -3.24263e-05)
(0.0284668 0.000845267 -2.09239e-05)
(0.0284463 0.000900062 -9.91839e-06)
(0.0284127 0.000951115 -1.35028e-06)
(0.0283692 0.000997688 5.86684e-06)
(0.0283336 0.00103043 1.00241e-05)
(0.0282873 0.00106853 1.43433e-05)
(0.0282499 0.00110253 1.87164e-05)
(0.0282214 0.00113128 2.52287e-05)
(0.0281984 0.00115386 3.01513e-05)
(0.0281774 0.00117198 3.04638e-05)
(0.0281608 0.0011829 2.29367e-05)
(0.0281564 0.00118705 1.73222e-05)
(0.0281629 0.00118655 1.86588e-05)
(0.0281851 0.0011798 2.81079e-05)
(0.0282277 0.00116747 4.22215e-05)
(0.02829 0.00115105 5.46111e-05)
(0.0283637 0.00113081 5.64547e-05)
(0.0284491 0.00110683 5.58614e-05)
(0.0285188 0.00108726 5.41803e-05)
(0.0286217 0.00105651 4.70599e-05)
(0.0287365 0.00102332 4.59854e-05)
(0.0288565 0.00099025 4.79142e-05)
(0.0289447 0.000965926 4.59163e-05)
(0.0290711 0.000930148 3.90702e-05)
(0.029201 0.000892211 2.9941e-05)
(0.0293267 0.000853667 2.25271e-05)
(0.0294401 0.000815712 2.38496e-05)
(0.0295169 0.00078828 3.0452e-05)
(0.0296177 0.000748487 4.00541e-05)
(0.029701 0.000707999 4.62394e-05)
(0.0297637 0.000669705 5.14636e-05)
(0.0298002 0.000642539 5.67455e-05)
(0.0298404 0.000603184 6.68376e-05)
(0.0298603 0.000564363 7.67433e-05)
(0.0298592 0.000538132 8.16548e-05)
(0.029835 0.000501026 8.57469e-05)
(0.0297796 0.000463592 9.0762e-05)
(0.0297281 0.000438844 9.58655e-05)
(0.0296417 0.00040505 0.000105251)
(0.0295283 0.000370628 0.000114665)
(0.029437 0.000347851 0.000119794)
(0.0292898 0.000316095 0.000125279)
(0.0291172 0.000284599 0.000127219)
(0.0289929 0.000263975 0.000126848)
(0.0287968 0.000233891 0.000125508)
(0.028657 0.000214146 0.000124517)
(0.0284453 0.000186241 0.000122647)
(0.0282885 0.000167368 0.000120956)
(0.0280554 0.000141638 0.000118686)
(0.0278815 0.000124446 0.000117551)
(0.0276167 0.000100925 0.000116314)
(0.0274218 8.58621e-05 0.000115555)
(0.0271008 6.47072e-05 0.00011431)
(0.0268638 5.18213e-05 0.000113226)
(0.0264442 3.37315e-05 0.000110888)
(0.0261183 2.28029e-05 0.000108848)
(0.0257468 1.31236e-05 0.000106462)
(0.0253041 4.48974e-06 0.00010368)
(0.024443 -6.5588e-06 9.84511e-05)
(0.0237431 -1.19867e-05 9.43109e-05)
(0.0228944 -1.59242e-05 8.94421e-05)
(0.0218567 -1.83483e-05 8.37444e-05)
(0.0205928 -1.92852e-05 7.71684e-05)
(0.000792137 -2.12912e-05 5.5303e-06)
(0.00304145 -7.05416e-05 1.44584e-05)
(0.00607287 -0.000128299 2.2266e-05)
(0.00861305 -0.000167901 2.63475e-05)
(0.0128262 -0.000205732 2.9458e-05)
(0.0157398 -0.000199564 2.86884e-05)
(0.0198104 -0.000134755 2.1964e-05)
(0.0221638 -5.05378e-05 1.19737e-05)
(0.0241052 5.22918e-05 -2.52212e-06)
(0.0261765 0.000219565 -2.56896e-05)
(0.0270795 0.000329454 -3.82452e-05)
(0.0276658 0.00042945 -4.69198e-05)
(0.0280367 0.000518182 -5.05038e-05)
(0.0282505 0.000597832 -4.83508e-05)
(0.0283665 0.000669358 -4.21506e-05)
(0.0284168 0.00073528 -3.31083e-05)
(0.0284255 0.000795584 -2.18124e-05)
(0.0284109 0.000851966 -1.06948e-05)
(0.0283812 0.000904587 -1.71227e-06)
(0.0283406 0.000952885 5.64067e-06)
(0.0282948 0.000997219 1.12941e-05)
(0.0282522 0.00103595 1.58172e-05)
(0.028235 0.00105821 1.84224e-05)
(0.0282074 0.00108919 2.47897e-05)
(0.028186 0.00111395 3.00772e-05)
(0.0281669 0.00113268 3.02695e-05)
(0.0281528 0.0011445 2.33655e-05)
(0.0281514 0.00114959 1.74536e-05)
(0.0281658 0.00114823 2.10011e-05)
(0.0281807 0.00114759 2.69177e-05)
(0.0282247 0.00113676 4.10702e-05)
(0.0282885 0.00112118 5.31778e-05)
(0.0283667 0.00110108 5.60882e-05)
(0.0284591 0.0010768 5.58267e-05)
(0.0285152 0.00106371 5.42515e-05)
(0.0286223 0.00103345 4.78048e-05)
(0.0287389 0.00100107 4.59193e-05)
(0.0288639 0.000967483 4.7761e-05)
(0.0289952 0.000932228 4.40665e-05)
(0.0290707 0.00091282 3.9607e-05)
(0.0292039 0.000875106 3.03164e-05)
(0.0293329 0.000836502 2.3102e-05)
(0.0294541 0.000797163 2.43201e-05)
(0.0295174 0.000775568 2.9822e-05)
(0.029622 0.000735245 3.95801e-05)
(0.0297083 0.000694824 4.62749e-05)
(0.0297755 0.000654652 5.19428e-05)
(0.0298052 0.000632924 5.64127e-05)
(0.029847 0.00059307 6.68127e-05)
(0.0298684 0.000553397 7.69673e-05)
(0.0298681 0.000532167 8.10724e-05)
(0.0298434 0.00049323 8.58463e-05)
(0.029787 0.000455141 9.10448e-05)
(0.0297057 0.000418283 9.9275e-05)
(0.0296526 0.000399004 0.000104873)
(0.0295349 0.000363613 0.000114645)
(0.0294607 0.000345172 0.000118936)
(0.0293016 0.000311111 0.000125021)
(0.0291183 0.00027799 0.000127073)
(0.0290141 0.000260955 0.000126812)
(0.0288047 0.00022915 0.000125449)
(0.0286895 0.00021296 0.000124632)
(0.0284569 0.000182574 0.000122575)
(0.0282062 0.000153245 0.000119912)
(0.0280688 0.000138655 0.000118675)
(0.0277845 0.00011148 0.000116969)
(0.0276277 9.81836e-05 0.000116268)
(0.0274621 8.53782e-05 0.000115591)
(0.0271009 6.17632e-05 0.000114197)
(0.0268917 5.05263e-05 0.000113265)
(0.0264097 3.01452e-05 0.000110599)
(0.0261178 2.07547e-05 0.000108772)
(0.0257818 1.2094e-05 0.000106627)
(0.0253888 4.28785e-06 0.000104166)
(0.0243854 -8.40669e-06 9.81114e-05)
(0.023722 -1.32358e-05 9.42068e-05)
(0.0229142 -1.67999e-05 8.95771e-05)
(0.0219249 -1.90627e-05 8.41307e-05)
(0.0207136 -1.99273e-05 7.77951e-05)
(0.000318024 -6.4901e-05 4.51728e-06)
(0.00189065 -0.000167424 1.03675e-05)
(0.00452232 -0.000255817 1.66925e-05)
(0.00795696 -0.000348631 2.29704e-05)
(0.0105011 -0.000423349 2.59028e-05)
(0.0144798 -0.000508368 2.70656e-05)
(0.0171054 -0.000532575 2.49293e-05)
(0.0206517 -0.000501154 1.64542e-05)
(0.0226947 -0.000436346 5.18582e-06)
(0.0243722 -0.000345778 -9.25363e-06)
(0.0256734 -0.000240244 -2.44189e-05)
(0.0266141 -0.000129739 -3.82949e-05)
(0.0272549 -2.25513e-05 -4.77249e-05)
(0.027666 7.79415e-05 -5.04108e-05)
(0.0279221 0.000170035 -4.74265e-05)
(0.0280659 0.00025443 -4.01186e-05)
(0.0281405 0.000332237 -2.97123e-05)
(0.0281732 0.00040472 -1.75544e-05)
(0.0281809 0.00047334 -6.89045e-06)
(0.0281719 0.000536881 1.7413e-06)
(0.0281529 0.000596259 9.03484e-06)
(0.0281328 0.000650599 1.4875e-05)
(0.0281203 0.000699906 2.0559e-05)
(0.0281154 0.000744137 2.77312e-05)
(0.0281143 0.000771463 3.13508e-05)
(0.0281129 0.000805955 3.18034e-05)
(0.0281159 0.000834618 2.55892e-05)
(0.0281285 0.000856691 1.77115e-05)
(0.0281528 0.000872082 1.70006e-05)
(0.0281919 0.000881119 2.59421e-05)
(0.028229 0.000885222 3.49668e-05)
(0.0282972 0.000884855 4.7882e-05)
(0.0283808 0.00087986 5.37789e-05)
(0.0284758 0.000870385 5.55666e-05)
(0.0285808 0.00085695 5.34891e-05)
(0.0286554 0.000846268 4.90407e-05)
(0.0287717 0.000826534 4.54574e-05)
(0.0288959 0.000804453 4.75446e-05)
(0.0290263 0.000780719 4.53611e-05)
(0.029117 0.000764202 4.11595e-05)
(0.0292488 0.00073733 3.23026e-05)
(0.0293782 0.000708384 2.48117e-05)
(0.0294997 0.00067838 2.37603e-05)
(0.0295753 0.000657967 2.90654e-05)
(0.0296788 0.000626747 3.84753e-05)
(0.0297665 0.000594796 4.57577e-05)
(0.0298348 0.000562432 5.14429e-05)
(0.0298709 0.000541226 5.67946e-05)
(0.0299144 0.00050885 6.69868e-05)
(0.029939 0.000476115 7.65904e-05)
(0.0299371 0.000443707 8.33241e-05)
(0.0299196 0.000422782 8.66182e-05)
(0.029868 0.000390836 9.17613e-05)
(0.0297927 0.000359866 9.85509e-05)
(0.0297343 0.00034058 0.000104158)
(0.0296245 0.000310778 0.000113204)
(0.0294893 0.000281554 0.00012059)
(0.0293929 0.000263643 0.000123986)
(0.0292204 0.000235429 0.000126151)
(0.0291067 0.000218551 0.000126038)
(0.0289094 0.000191265 0.000125056)
(0.0287848 0.00017531 0.000124207)
(0.0285647 0.000149132 0.000122127)
(0.0283271 0.000123835 0.000119581)
(0.0281803 0.000109668 0.000118345)
(0.0279089 8.61547e-05 0.000116725)
(0.027743 7.34095e-05 0.000115848)
(0.0275684 6.13144e-05 0.000114984)
(0.0272198 4.0969e-05 0.000113634)
(0.0270009 3.0538e-05 0.00011283)
(0.026533 1.31474e-05 0.000110597)
(0.02623 4.66997e-06 0.000108856)
(0.0258812 -2.97014e-06 0.000106772)
(0.0254739 -9.68062e-06 0.000104365)
(0.024483 -1.96234e-05 9.86415e-05)
(0.0237992 -2.32481e-05 9.47106e-05)
(0.0229676 -2.55846e-05 8.9987e-05)
(0.0219521 -2.65552e-05 8.43957e-05)
(0.0207128 -2.61459e-05 7.78933e-05)
(0.000290749 -5.49154e-05 4.17363e-06)
(0.00175453 -0.000146126 9.72066e-06)
(0.00425231 -0.000234603 1.55781e-05)
(0.00756777 -0.000332546 2.12715e-05)
(0.0100571 -0.000414932 2.38405e-05)
(0.0140169 -0.000510859 2.49104e-05)
(0.0166417 -0.000543418 2.31998e-05)
(0.0202396 -0.000522754 1.57037e-05)
(0.0223133 -0.000465388 5.6736e-06)
(0.0240346 -0.000381297 -7.55866e-06)
(0.0253922 -0.000280474 -2.19855e-05)
(0.0267581 -0.000122248 -4.08244e-05)
(0.027324 -1.85194e-05 -4.78311e-05)
(0.027697 7.93727e-05 -4.91074e-05)
(0.0279237 0.000168945 -4.51999e-05)
(0.028051 0.000251333 -3.69497e-05)
(0.0281171 0.000327706 -2.56449e-05)
(0.0281381 0.000368463 -1.91922e-05)
(0.0281525 0.000438173 -8.23504e-06)
(0.0281484 0.000503144 7.16866e-07)
(0.0281327 0.000563852 8.23369e-06)
(0.0281148 0.000619517 1.44237e-05)
(0.0281039 0.000670013 2.04358e-05)
(0.0281008 0.000715046 2.7687e-05)
(0.0281006 0.000754456 3.22474e-05)
(0.0281021 0.000776858 3.20312e-05)
(0.0281065 0.000807037 2.6178e-05)
(0.0281205 0.000830217 1.83681e-05)
(0.0281468 0.00084652 1.71993e-05)
(0.0281886 0.000856261 2.57881e-05)
(0.0282209 0.000862172 3.33199e-05)
(0.028291 0.000862826 4.66556e-05)
(0.0283765 0.00085859 5.33355e-05)
(0.0284746 0.000849677 5.51927e-05)
(0.0285837 0.000836524 5.33737e-05)
(0.0286491 0.000829119 4.96121e-05)
(0.0287687 0.000809876 4.55967e-05)
(0.0288957 0.000788211 4.73819e-05)
(0.0290299 0.000764534 4.52356e-05)
(0.0291102 0.000751275 4.17613e-05)
(0.0292467 0.000724477 3.27399e-05)
(0.0293794 0.000695827 2.51604e-05)
(0.0295043 0.000665788 2.40118e-05)
(0.029572 0.00064855 2.83751e-05)
(0.0296795 0.000616999 3.80083e-05)
(0.0297699 0.000585077 4.56088e-05)
(0.0298406 0.000552539 5.15814e-05)
(0.0298731 0.000534128 5.63129e-05)
(0.0299186 0.000501422 6.67329e-05)
(0.0299445 0.000468473 7.66065e-05)
(0.0299424 0.000435564 8.34862e-05)
(0.0299267 0.000417208 8.65172e-05)
(0.0298744 0.00038489 9.18706e-05)
(0.0297966 0.000353365 9.88603e-05)
(0.0297437 0.00033624 0.000103843)
(0.029631 0.000305961 0.000113091)
(0.0294914 0.000276155 0.000120712)
(0.0294034 0.000260098 0.000123811)
(0.0292256 0.00023131 0.000126081)
(0.029121 0.000215965 0.000125992)
(0.0289174 0.000188073 0.000125033)
(0.0286982 0.000160764 0.000123368)
(0.0285748 0.000146586 0.0001221)
(0.0283293 0.000120722 0.000119474)
(0.0281911 0.000107545 0.000118324)
(0.0279109 8.35139e-05 0.000116653)
(0.0277529 7.15257e-05 0.000115816)
(0.0275857 6.00145e-05 0.000114985)
(0.0272267 3.92256e-05 0.000113586)
(0.0270152 2.92416e-05 0.000112819)
(0.0265336 1.15384e-05 0.000110539)
(0.0262375 3.39226e-06 0.000108849)
(0.0258964 -4.00273e-06 0.000106829)
(0.0254969 -1.05438e-05 0.000104482)
(0.0244813 -2.05587e-05 9.86383e-05)
(0.0238039 -2.40355e-05 9.47497e-05)
(0.022979 -2.62506e-05 9.00651e-05)
(0.0219702 -2.71339e-05 8.4506e-05)
(0.0207369 -2.66405e-05 7.80231e-05)
(-3.14563e-06 5.07965e-05 1.80741e-06)
(0.00018977 6.97792e-05 3.24542e-06)
(0.00127013 -1.01667e-05 4.5438e-06)
(0.00330379 -0.000175143 4.63218e-06)
(0.00643055 -0.000418571 3.88799e-06)
(0.00895854 -0.000566256 4.81471e-06)
(0.0129959 -0.000746124 7.88291e-06)
(0.0156942 -0.000814031 1.04181e-05)
(0.01825 -0.000837207 1.12954e-05)
(0.020558 -0.000814021 7.73353e-06)
(0.0233856 -0.000711308 -6.57953e-06)
(0.0248423 -0.000607467 -1.90464e-05)
(0.0259164 -0.000491454 -3.21951e-05)
(0.026683 -0.000373302 -4.36542e-05)
(0.0271907 -0.000260643 -4.86346e-05)
(0.0275101 -0.000156714 -4.49698e-05)
(0.0277046 -6.18242e-05 -3.51731e-05)
(0.0278163 2.46189e-05 -2.30915e-05)
(0.0278797 0.000105296 -1.1568e-05)
(0.0279037 0.00015216 -5.66872e-06)
(0.027927 0.000225222 3.18855e-06)
(0.0279391 0.000292688 1.1361e-05)
(0.0279515 0.000354234 1.87138e-05)
(0.0279693 0.00041008 2.61991e-05)
(0.0279895 0.000461122 3.20223e-05)
(0.0280093 0.000506567 3.19762e-05)
(0.0280247 0.000534217 2.89078e-05)
(0.0280545 0.000569464 2.17398e-05)
(0.028094 0.00059842 1.70444e-05)
(0.0281455 0.000620419 2.04757e-05)
(0.0282124 0.000636631 3.12237e-05)
(0.0282637 0.000645336 3.97633e-05)
(0.0283555 0.000652899 4.9264e-05)
(0.0284595 0.000655841 5.3403e-05)
(0.0285731 0.000654062 5.40054e-05)
(0.0286507 0.000652105 5.09299e-05)
(0.0287737 0.000643795 4.62141e-05)
(0.0289032 0.000632036 4.69092e-05)
(0.0290384 0.000617403 4.5427e-05)
(0.0291289 0.000608017 4.27642e-05)
(0.0292676 0.000590502 3.45244e-05)
(0.0294036 0.000570556 2.73149e-05)
(0.0295319 0.00054862 2.46595e-05)
(0.0296493 0.000525085 3.06014e-05)
(0.0297172 0.000510159 3.62508e-05)
(0.0298112 0.0004856 4.45626e-05)
(0.0298861 0.000460148 5.12858e-05)
(0.0299233 0.000444145 5.61352e-05)
(0.029972 0.000417719 6.63337e-05)
(0.0300024 0.000390912 7.61638e-05)
(0.0300061 0.000363877 8.29643e-05)
(0.0299928 0.0003475 8.68396e-05)
(0.0299457 0.000320487 9.27853e-05)
(0.0298723 0.000293808 9.89893e-05)
(0.0298187 0.000278352 0.000103364)
(0.0297117 0.000252739 0.000111589)
(0.0295788 0.000227407 0.000119251)
(0.0294898 0.000212913 0.000122764)
(0.0293184 0.000188168 0.000125231)
(0.0292129 0.000174316 0.000125275)
(0.0290158 0.000150079 0.00012469)
(0.0288027 0.000126259 0.000122988)
(0.028678 0.00011338 0.00012157)
(0.028438 9.07419e-05 0.000118992)
(0.0282987 7.88617e-05 0.000117896)
(0.0280233 5.77722e-05 0.00011624)
(0.0278637 4.69674e-05 0.000115352)
(0.027695 3.6684e-05 0.000114474)
(0.027339 1.84855e-05 0.000113082)
(0.0271255 9.65318e-06 0.000112384)
(0.0266449 -5.58609e-06 0.000110364)
(0.0263447 -1.25776e-05 0.000108832)
(0.0259989 -1.87869e-05 0.000106996)
(0.025594 -2.41268e-05 0.00010482)
(0.0245688 -3.16517e-05 9.92077e-05)
(0.0238781 -3.38492e-05 9.533e-05)
(0.0230384 -3.48184e-05 9.06046e-05)
(0.022011 -3.44111e-05 8.49424e-05)
(0.0207584 -3.26981e-05 7.83246e-05)
(-4.23933e-05 6.01775e-05 1.74902e-06)
(0.000273052 8.30541e-05 3.73002e-06)
(0.00106122 1.15485e-05 4.32945e-06)
(0.00297756 -0.000149715 4.35764e-06)
(0.00600745 -0.000392721 3.57369e-06)
(0.00848695 -0.000545804 4.31385e-06)
(0.0124752 -0.000734415 7.37478e-06)
(0.0151757 -0.000813115 9.91031e-06)
(0.0177557 -0.000847139 1.10697e-05)
(0.0201063 -0.000833722 8.17061e-06)
(0.0230078 -0.000740171 -5.31896e-06)
(0.0245341 -0.000641239 -1.73217e-05)
(0.025677 -0.00052746 -3.03405e-05)
(0.0265055 -0.00040938 -4.20404e-05)
(0.0270643 -0.000295216 -4.77505e-05)
(0.0274212 -0.000189275 -4.533e-05)
(0.0276419 -9.22456e-05 -3.63743e-05)
(0.0277711 -4.06512e-06 -2.4469e-05)
(0.0278456 7.80162e-05 -1.26141e-05)
(0.0278739 0.000122422 -6.97703e-06)
(0.0279029 0.000196514 2.01479e-06)
(0.0279186 0.00026511 1.02606e-05)
(0.0279332 0.000327829 1.7903e-05)
(0.0279526 0.000384756 2.56106e-05)
(0.0279749 0.000436729 3.17895e-05)
(0.0279965 0.000483041 3.20201e-05)
(0.0280119 0.000509456 2.94986e-05)
(0.028043 0.000546148 2.25672e-05)
(0.0280839 0.000576297 1.74947e-05)
(0.0281369 0.000599326 2.02134e-05)
(0.0282058 0.000616282 3.05622e-05)
(0.0282529 0.000625735 3.81225e-05)
(0.028346 0.000634213 4.83268e-05)
(0.0284522 0.000638021 5.30724e-05)
(0.028568 0.000636957 5.38197e-05)
(0.0286403 0.000636405 5.13728e-05)
(0.0287659 0.000628847 4.64633e-05)
(0.0288977 0.000617796 4.68681e-05)
(0.0290352 0.000603716 4.5425e-05)
(0.0291202 0.000595759 4.31282e-05)
(0.0292619 0.000578684 3.50943e-05)
(0.0294005 0.000559307 2.7658e-05)
(0.0295312 0.000537869 2.48003e-05)
(0.0296045 0.000524894 2.75059e-05)
(0.0297161 0.000501053 3.57667e-05)
(0.0298119 0.000476882 4.4216e-05)
(0.0298887 0.000451846 5.12114e-05)
(0.0299251 0.000436854 5.58239e-05)
(0.0299749 0.000410735 6.59954e-05)
(0.0300066 0.000384275 7.6004e-05)
(0.0300111 0.000357516 8.28608e-05)
(0.0299987 0.000341916 8.66902e-05)
(0.0299522 0.000315199 9.27872e-05)
(0.0298788 0.000288741 9.90035e-05)
(0.0298264 0.000273818 0.000103218)
(0.0297193 0.000248463 0.000111384)
(0.0295861 0.000223355 0.000119109)
(0.0294985 0.000209264 0.000122624)
(0.0293268 0.000184752 0.000125166)
(0.0292221 0.000171139 0.00012521)
(0.0290247 0.000147152 0.00012467)
(0.0288113 0.000123526 0.000122963)
(0.0286871 0.000110854 0.000121538)
(0.028447 8.84195e-05 0.000118956)
(0.0283079 7.66882e-05 0.000117869)
(0.0280324 5.58015e-05 0.000116207)
(0.0278728 4.51136e-05 0.000115317)
(0.0277039 3.49026e-05 0.000114436)
(0.0273479 1.69231e-05 0.000113045)
(0.0271339 8.16865e-06 0.00011235)
(0.0266537 -6.87256e-06 0.000110349)
(0.0263527 -1.37766e-05 0.000108827)
(0.0260062 -1.99024e-05 0.000107004)
(0.0251486 -2.91917e-05 0.000102406)
(0.0245752 -3.24749e-05 9.92528e-05)
(0.0238829 -3.45763e-05 9.53727e-05)
(0.0230411 -3.54492e-05 9.06391e-05)
(0.0220114 -3.4943e-05 8.49631e-05)
(0.0207561 -3.31344e-05 7.83286e-05)
(-0.000222884 9.75354e-05 4.85527e-06)
(-0.00061029 0.000262306 1.32895e-05)
(-0.000672546 0.000357667 1.92328e-05)
(-0.00021845 0.000385458 2.20209e-05)
(0.000556493 0.000309629 2.11195e-05)
(0.00255437 4.40144e-05 1.65064e-05)
(0.00453737 -0.00019767 1.19366e-05)
(0.0082278 -0.000568525 6.52166e-06)
(0.011062 -0.000774845 4.71287e-06)
(0.013985 -0.000920797 4.24583e-06)
(0.0168235 -0.000995921 3.13394e-06)
(0.0205558 -0.000985335 -4.84978e-06)
(0.0226138 -0.00090991 -1.48473e-05)
(0.0242584 -0.000799198 -2.60892e-05)
(0.0254781 -0.000670723 -3.60294e-05)
(0.0263206 -0.000541541 -4.37741e-05)
(0.0268747 -0.000420648 -4.33096e-05)
(0.0272258 -0.000312057 -3.47655e-05)
(0.0273585 -0.000255246 -2.76318e-05)
(0.027521 -0.000163171 -1.46024e-05)
(0.0276185 -8.01603e-05 -4.48612e-06)
(0.0276821 -3.24538e-06 4.14898e-06)
(0.027731 6.63435e-05 1.32954e-05)
(0.0277769 0.000130201 2.25571e-05)
(0.0278219 0.000188278 3.00954e-05)
(0.0278485 0.000222589 3.21712e-05)
(0.0278906 0.000272691 3.09674e-05)
(0.0279383 0.000317307 2.62745e-05)
(0.0279943 0.000356236 2.08534e-05)
(0.0280605 0.000388485 1.94249e-05)
(0.0281082 0.000407001 2.21305e-05)
(0.0281937 0.000428542 3.08188e-05)
(0.0282934 0.000445664 4.21439e-05)
(0.0284067 0.000458425 4.99477e-05)
(0.0285296 0.000466403 5.20622e-05)
(0.0286106 0.000470772 5.1234e-05)
(0.0287423 0.000472092 4.75905e-05)
(0.0288799 0.000469814 4.70188e-05)
(0.0290223 0.000463771 4.53682e-05)
(0.0291128 0.000459566 4.33936e-05)
(0.0292582 0.000449848 3.65892e-05)
(0.0294028 0.00043815 2.95193e-05)
(0.0295398 0.000424024 2.62889e-05)
(0.0296189 0.00041496 2.77591e-05)
(0.0297354 0.000397627 3.42421e-05)
(0.0298358 0.000379632 4.21802e-05)
(0.0299189 0.000360879 5.06551e-05)
(0.0299593 0.000349299 5.56741e-05)
(0.0300136 0.000328733 6.51837e-05)
(0.0300508 0.000307764 7.52496e-05)
(0.0300617 0.000286277 8.21239e-05)
(0.0300533 0.000273686 8.64132e-05)
(0.0300129 0.000251783 9.35118e-05)
(0.0299437 0.000229751 9.95249e-05)
(0.0298935 0.000217302 0.000103122)
(0.0297899 0.000195907 0.000110189)
(0.0296615 0.000174838 0.000117809)
(0.0295777 0.00016311 0.0001216)
(0.02941 0.000142141 0.000124466)
(0.029309 0.000130622 0.000124517)
(0.0291146 0.000109782 0.000124233)
(0.028904 8.92406e-05 0.00012254)
(0.0287832 7.83838e-05 0.000121006)
(0.0285442 5.87755e-05 0.000118396)
(0.028408 4.86824e-05 0.000117408)
(0.0281329 3.04049e-05 0.000115737)
(0.027976 2.12098e-05 0.000114811)
(0.0278095 1.2422e-05 0.000113917)
(0.0274515 -3.2996e-06 0.000112557)
(0.0272388 -1.07473e-05 0.000111915)
(0.026753 -2.35896e-05 0.000110074)
(0.0264511 -2.92431e-05 0.000108717)
(0.0261043 -3.41397e-05 0.000107101)
(0.0252328 -4.11226e-05 0.000102848)
(0.024652 -4.31281e-05 9.98171e-05)
(0.0239514 -4.39835e-05 9.59928e-05)
(0.0230987 -4.35759e-05 9.12324e-05)
(0.0220577 -4.18808e-05 8.54645e-05)
(0.0207872 -3.88471e-05 7.86781e-05)
(-0.000390199 0.000163295 8.78319e-06)
(-0.000680223 0.000274299 1.48484e-05)
(-0.000862846 0.000387393 2.15127e-05)
(-0.00056758 0.000434779 2.46726e-05)
(6.31601e-05 0.000374028 2.3997e-05)
(0.00190309 0.000104799 1.84802e-05)
(0.00380675 -0.00014788 1.30291e-05)
(0.00620915 -0.000421412 8.00615e-06)
(0.0103398 -0.000761947 4.04619e-06)
(0.0133159 -0.000923336 3.63036e-06)
(0.0162312 -0.0010122 3.34607e-06)
(0.0189175 -0.0010274 -4.00954e-07)
(0.0212649 -0.000980691 -8.04869e-06)
(0.0231994 -0.000888938 -1.8984e-05)
(0.0247018 -0.00076701 -2.95411e-05)
(0.0257835 -0.000635325 -3.94479e-05)
(0.026517 -0.000507058 -4.45825e-05)
(0.0269947 -0.00039003 -4.0656e-05)
(0.027294 -0.000284911 -2.96807e-05)
(0.0274755 -0.000191009 -1.64096e-05)
(0.0275844 -0.000106498 -5.81872e-06)
(0.027655 -2.84531e-05 2.92765e-06)
(0.0277078 4.2314e-05 1.20481e-05)
(0.0277562 0.000107224 2.14356e-05)