/*--------------------------------*- C++ -*----------------------------------*\
  =========                 |
  \\      /  F ield         | OpenFOAM: The Open Source CFD Toolbox
   \\    /   O peration     | Website:  https://openfoam.org
    \\  /    A nd           | Version:  7
     \\/     M anipulation  |
\*---------------------------------------------------------------------------*/
FoamFile
{
    version     2.0;
    format      ascii;
    class       volScalarField;
    location    "20000";
    object      epsilon;
}
// * * * * * * * * * * * * * * * * * * * * * * * * * * * * * * * * * * * * * //

dimensions      [0 2 -3 0 0 0 0];

internalField   nonuniform List<scalar> 
10981
(
7.6611e-06
6.01916e-06
4.38236e-06
3.29842e-06
2.56295e-06
2.05486e-06
1.69597e-06
1.43543e-06
1.24056e-06
1.0904e-06
9.71395e-07
8.74616e-07
7.94068e-07
7.25644e-07
6.66477e-07
6.14527e-07
5.68321e-07
5.26777e-07
4.8909e-07
4.54652e-07
4.22998e-07
3.93763e-07
3.66659e-07
3.41453e-07
3.17953e-07
2.95999e-07
2.75453e-07
2.56192e-07
2.38112e-07
2.21118e-07
2.05128e-07
1.9007e-07
1.75881e-07
1.62511e-07
1.49916e-07
1.38068e-07
1.26944e-07
1.16535e-07
1.06839e-07
9.78602e-08
8.96084e-08
8.20942e-08
7.53272e-08
6.93134e-08
6.40541e-08
5.95458e-08
5.57807e-08
5.27494e-08
5.04435e-08
4.8859e-08
4.79999e-08
4.78814e-08
4.85328e-08
4.99999e-08
5.23457e-08
5.56516e-08
6.00166e-08
6.55575e-08
7.24106e-08
8.07377e-08
9.0738e-08
1.0267e-07
1.1688e-07
1.3385e-07
1.54246e-07
1.78989e-07
2.09343e-07
2.47018e-07
2.94308e-07
3.54264e-07
4.30923e-07
5.29631e-07
6.57558e-07
8.24588e-07
1.04492e-06
1.33974e-06
1.73931e-06
2.25037e-06
2.21873e-06
6.87717e-06
5.20121e-06
3.80701e-06
2.94159e-06
2.35338e-06
1.93358e-06
1.62513e-06
1.39307e-06
1.21445e-06
1.0738e-06
9.60552e-07
8.67401e-07
7.89238e-07
7.22445e-07
6.64431e-07
6.13315e-07
5.67719e-07
5.26621e-07
4.89258e-07
4.55049e-07
4.23552e-07
3.94418e-07
3.67375e-07
3.42201e-07
3.18712e-07
2.96754e-07
2.76194e-07
2.56915e-07
2.38815e-07
2.21802e-07
2.05794e-07
1.90719e-07
1.76516e-07
1.63133e-07
1.50528e-07
1.3867e-07
1.27536e-07
1.17115e-07
1.07405e-07
9.84098e-08
9.01373e-08
8.25982e-08
7.58021e-08
6.97553e-08
6.44597e-08
5.99126e-08
5.6107e-08
5.30342e-08
5.06862e-08
4.90595e-08
4.81577e-08
4.79957e-08
4.86025e-08
5.00228e-08
5.23194e-08
5.55731e-08
5.98834e-08
6.53683e-08
7.21671e-08
8.0446e-08
9.04117e-08
1.02332e-07
1.16569e-07
1.3362e-07
1.54174e-07
1.79181e-07
2.09935e-07
2.48182e-07
2.96253e-07
3.57224e-07
4.35139e-07
5.35319e-07
6.64872e-07
8.33577e-07
1.05551e-06
1.35175e-06
1.75244e-06
2.26426e-06
2.23117e-06
5.74767e-06
4.58124e-06
3.42033e-06
2.69717e-06
2.20954e-06
1.85759e-06
1.59208e-06
1.38563e-06
1.2213e-06
1.08793e-06
9.77784e-07
8.85338e-07
8.06589e-07
7.38577e-07
6.79092e-07
6.26465e-07
5.79429e-07
5.37012e-07
4.98468e-07
4.63214e-07
4.30797e-07
4.00856e-07
3.73106e-07
3.47311e-07
3.23277e-07
3.00842e-07
2.79864e-07
2.60219e-07
2.418e-07
2.24508e-07
2.08257e-07
1.92972e-07
1.78585e-07
1.65042e-07
1.52295e-07
1.40309e-07
1.29061e-07
1.18534e-07
1.08724e-07
9.96316e-08
9.12639e-08
8.36301e-08
7.67391e-08
7.05974e-08
6.52073e-08
6.05667e-08
5.66693e-08
5.3507e-08
5.1072e-08
4.93604e-08
4.83753e-08
4.81307e-08
4.8654e-08
4.99888e-08
5.21965e-08
5.53569e-08
5.95693e-08
6.49527e-08
7.16488e-08
7.98282e-08
8.97042e-08
1.01554e-07
1.1575e-07
1.32804e-07
1.53425e-07
1.78583e-07
2.096e-07
2.48248e-07
2.96885e-07
3.58606e-07
4.37457e-07
5.38737e-07
6.69499e-07
8.39444e-07
1.06255e-06
1.3598e-06
1.76141e-06
2.27499e-06
2.24426e-06
4.76071e-06
3.86909e-06
3.14875e-06
2.6228e-06
2.23107e-06
1.92732e-06
1.68449e-06
1.48593e-06
1.32077e-06
1.18157e-06
1.06303e-06
9.61205e-07
8.73057e-07
7.96192e-07
7.28689e-07
6.68992e-07
6.15834e-07
5.6818e-07
5.25189e-07
4.86178e-07
4.5059e-07
4.17972e-07
3.87958e-07
3.60243e-07
3.34577e-07
3.10749e-07
2.8858e-07
2.67915e-07
2.48619e-07
2.30575e-07
2.13676e-07
1.97831e-07
1.82961e-07
1.68996e-07
1.55881e-07
1.43571e-07
1.32033e-07
1.21244e-07
1.11193e-07
1.01876e-07
9.32956e-08
8.54587e-08
7.83723e-08
7.2042e-08
6.647e-08
6.16544e-08
5.75893e-08
5.42666e-08
5.16784e-08
4.98197e-08
4.86925e-08
4.83086e-08
4.86932e-08
4.98874e-08
5.195e-08
5.4959e-08
5.90126e-08
6.42298e-08
7.07541e-08
7.87595e-08
8.84644e-08
1.00152e-07
1.14205e-07
1.31144e-07
1.5169e-07
1.76828e-07
2.07895e-07
2.46686e-07
2.95572e-07
3.57663e-07
4.37002e-07
5.38868e-07
6.70264e-07
8.40807e-07
1.06437e-06
1.3619e-06
1.76389e-06
2.27996e-06
2.24929e-06
3.90181e-06
2.75976e-06
2.55281e-06
2.38171e-06
2.20558e-06
2.02554e-06
1.84811e-06
1.6785e-06
1.51983e-06
1.37369e-06
1.24064e-06
1.12061e-06
1.01309e-06
9.17279e-07
8.32202e-07
7.56787e-07
6.89934e-07
6.30576e-07
5.77717e-07
5.3046e-07
4.88022e-07
4.49726e-07
4.15005e-07
3.83382e-07
3.54462e-07
3.27915e-07
3.03464e-07
2.80879e-07
2.5996e-07
2.40539e-07
2.22469e-07
2.05626e-07
1.89899e-07
1.75197e-07
1.61444e-07
1.48576e-07
1.36546e-07
1.25318e-07
1.1487e-07
1.0519e-07
9.62722e-08
8.81184e-08
8.07323e-08
7.41171e-08
6.82741e-08
6.32008e-08
5.88913e-08
5.53371e-08
5.25295e-08
5.0462e-08
4.91345e-08
4.8556e-08
4.87483e-08
4.9749e-08
5.16133e-08
5.44162e-08
5.82536e-08
6.32437e-08
6.95305e-08
7.72903e-08
8.67448e-08
9.81823e-08
1.11989e-07
1.28693e-07
1.49019e-07
1.73961e-07
2.04864e-07
2.43532e-07
2.92347e-07
3.5442e-07
4.33789e-07
5.35703e-07
6.67104e-07
8.37515e-07
1.0607e-06
1.3576e-06
1.75923e-06
2.27815e-06
2.24191e-06
3.24577e-06
1.8227e-06
1.72697e-06
1.77526e-06
1.82249e-06
1.8359e-06
1.80989e-06
1.74899e-06
1.66133e-06
1.55569e-06
1.44009e-06
1.32113e-06
1.20388e-06
1.0919e-06
9.8752e-07
8.9198e-07
8.05728e-07
7.28611e-07
6.6008e-07
5.99357e-07
5.45565e-07
4.97824e-07
4.55309e-07
4.17283e-07
3.83109e-07
3.52246e-07
3.2424e-07
2.98715e-07
2.75356e-07
2.53899e-07
2.34125e-07
2.15846e-07
1.98905e-07
1.83171e-07
1.68534e-07
1.54904e-07
1.4221e-07
1.30397e-07
1.19428e-07
1.09276e-07
9.99269e-08
9.13733e-08
8.36132e-08
7.66462e-08
7.04711e-08
6.50842e-08
6.04787e-08
5.66455e-08
5.35746e-08
5.1258e-08
4.96927e-08
4.88846e-08
4.88518e-08
4.96274e-08
5.12626e-08
5.38284e-08
5.74178e-08
6.21471e-08
6.816e-08
7.56339e-08
8.47928e-08
9.59277e-08
1.09428e-07
1.25823e-07
1.45841e-07
1.70478e-07
2.01083e-07
2.3946e-07
2.87993e-07
3.4979e-07
4.28871e-07
5.3044e-07
6.61359e-07
8.31034e-07
1.05311e-06
1.34852e-06
1.74885e-06
2.26973e-06
2.22077e-06
2.65616e-06
1.29199e-06
1.1068e-06
1.13691e-06
1.22805e-06
1.33407e-06
1.43029e-06
1.5011e-06
1.53785e-06
1.53798e-06
1.50382e-06
1.44106e-06
1.35711e-06
1.25971e-06
1.1559e-06
1.05146e-06
9.50696e-07
8.56451e-07
7.70314e-07
6.92883e-07
6.24048e-07
5.63247e-07
5.09684e-07
4.62475e-07
4.20753e-07
3.83726e-07
3.507e-07
3.21083e-07
2.94381e-07
2.70183e-07
2.4815e-07
2.28e-07
2.09501e-07
1.92461e-07
1.76722e-07
1.62154e-07
1.48654e-07
1.36143e-07
1.24558e-07
1.13858e-07
1.04013e-07
9.50051e-08
8.68248e-08
7.94656e-08
7.29228e-08
6.71902e-08
6.22598e-08
5.8121e-08
5.47625e-08
5.21745e-08
5.03513e-08
4.92955e-08
4.9021e-08
4.95566e-08
5.09487e-08
5.32643e-08
5.65925e-08
6.10473e-08
6.67712e-08
7.39421e-08
8.27852e-08
9.35932e-08
1.06757e-07
1.22807e-07
1.42472e-07
1.66746e-07
1.96977e-07
2.34968e-07
2.83099e-07
3.44464e-07
4.23053e-07
5.24016e-07
6.5412e-07
8.2264e-07
1.04309e-06
1.3364e-06
1.73466e-06
2.25655e-06
2.19209e-06
2.09324e-06
9.68312e-07
7.4906e-07
7.18697e-07
7.60038e-07
8.41318e-07
9.45843e-07
1.05966e-06
1.16962e-06
1.26303e-06
1.3295e-06
1.36252e-06
1.36024e-06
1.32519e-06
1.26318e-06
1.18179e-06
1.0889e-06
9.91562e-07
8.95366e-07
8.04209e-07
7.20417e-07
6.45036e-07
5.78185e-07
5.19395e-07
4.67881e-07
4.22741e-07
3.83079e-07
3.48074e-07
3.17008e-07
2.89275e-07
2.64371e-07
2.41879e-07
2.2146e-07
2.02835e-07
1.85778e-07
1.70105e-07
1.55671e-07
1.42359e-07
1.30081e-07
1.18771e-07
1.08382e-07
9.88822e-08
9.02511e-08
8.24749e-08
7.55434e-08
6.94472e-08
6.41759e-08
5.97173e-08
5.60585e-08
5.31876e-08
5.10965e-08
4.97843e-08
4.92609e-08
4.95506e-08
5.06951e-08
5.27567e-08
5.58206e-08
5.99979e-08
6.54295e-08
7.22927e-08
8.08135e-08
9.12857e-08
1.04101e-07
1.19789e-07
1.39078e-07
1.6296e-07
1.92778e-07
2.30331e-07
2.77988e-07
3.38825e-07
4.16797e-07
5.16986e-07
6.4606e-07
8.13156e-07
1.03165e-06
1.32242e-06
1.71797e-06
2.23987e-06
2.15986e-06
1.61871e-06
7.38637e-07
5.38316e-07
4.85683e-07
4.87136e-07
5.21204e-07
5.82359e-07
6.67521e-07
7.70941e-07
8.84173e-07
9.97272e-07
1.09875e-06
1.17762e-06
1.22556e-06
1.23851e-06
1.21722e-06
1.16654e-06
1.09396e-06
1.00783e-06
9.15908e-07
8.24415e-07
7.37662e-07
6.58171e-07
5.87021e-07
5.24286e-07
4.69428e-07
4.2161e-07
3.79894e-07
3.43376e-07
3.11242e-07
2.82791e-07
2.57439e-07
2.34704e-07
2.14194e-07
1.95593e-07
1.78645e-07
1.63147e-07
1.48937e-07
1.35893e-07
1.23919e-07
1.12946e-07
1.02924e-07
9.38202e-08
8.56105e-08
7.82778e-08
7.1808e-08
6.61876e-08
6.14023e-08
5.74373e-08
5.42785e-08
5.19153e-08
5.03436e-08
4.95694e-08
4.96125e-08
5.05098e-08
5.23191e-08
5.51212e-08
5.9024e-08
6.4166e-08
7.0724e-08
7.89237e-08
8.90596e-08
1.01523e-07
1.16846e-07
1.3575e-07
1.59227e-07
1.88613e-07
2.25701e-07
2.72845e-07
3.33101e-07
4.1038e-07
5.09696e-07
6.37607e-07
8.0311e-07
1.01942e-06
1.3073e-06
1.69954e-06
2.22052e-06
2.12587e-06
1.25545e-06
5.72501e-07
4.02945e-07
3.48555e-07
3.35064e-07
3.44306e-07
3.7157e-07
4.16716e-07
4.81361e-07
5.66212e-07
6.67732e-07
7.79241e-07
8.91707e-07
9.93945e-07
1.07465e-06
1.12484e-06
1.13992e-06
1.12041e-06
1.07137e-06
1.00076e-06
9.17413e-07
8.29334e-07
7.42699e-07
6.61559e-07
5.88064e-07
5.22939e-07
4.65979e-07
4.16474e-07
3.735e-07
3.36108e-07
3.03417e-07
2.7466e-07
2.49192e-07
2.26481e-07
2.06098e-07
1.87698e-07
1.71005e-07
1.55802e-07
1.41921e-07
1.29232e-07
1.17639e-07
1.07071e-07
9.7478e-08
8.88237e-08
8.10828e-08
7.42351e-08
6.82629e-08
6.31491e-08
5.88767e-08
5.54295e-08
5.27943e-08
5.09639e-08
4.99406e-08
4.97397e-08
5.03938e-08
5.19557e-08
5.4502e-08
5.81368e-08
6.29964e-08
6.92559e-08
7.71409e-08
8.6946e-08
9.90629e-08
1.14021e-07
1.32543e-07
1.55613e-07
1.84564e-07
2.21177e-07
2.67795e-07
3.27445e-07
4.03995e-07
5.02386e-07
6.29062e-07
7.92861e-07
1.0068e-06
1.2915e-06
1.67993e-06
2.19915e-06
2.09109e-06
9.90486e-07
4.53497e-07
3.1292e-07
2.6322e-07
2.45454e-07
2.4435e-07
2.55366e-07
2.77751e-07
3.1267e-07
3.62482e-07
4.30041e-07
5.16303e-07
6.17586e-07
7.27783e-07
8.3752e-07
9.35236e-07
1.00949e-06
1.0517e-06
1.0582e-06
1.03089e-06
9.76171e-07
9.02935e-07
8.20277e-07
7.35833e-07
6.54996e-07
5.8091e-07
5.14919e-07
4.57151e-07
4.07036e-07
3.63686e-07
3.2613e-07
2.93452e-07
2.6484e-07
2.39615e-07
2.17214e-07
1.97185e-07
1.79169e-07
1.6288e-07
1.48097e-07
1.34648e-07
1.22404e-07
1.1127e-07
1.01175e-07
9.20701e-08
8.39187e-08
7.66933e-08
7.03711e-08
6.49314e-08
6.03546e-08
5.66222e-08
5.37186e-08
5.16335e-08
5.03656e-08
4.99264e-08
5.03437e-08
5.16658e-08
5.39648e-08
5.73413e-08
6.19285e-08
6.78999e-08
7.54804e-08
8.49646e-08
9.67441e-08
1.11348e-07
1.29495e-07
1.52167e-07
1.8069e-07
2.16837e-07
2.62932e-07
3.21978e-07
3.97795e-07
4.95245e-07
6.20652e-07
7.8268e-07
9.94132e-07
1.27541e-06
1.65961e-06
2.17628e-06
2.05615e-06
8.02397e-07
3.69531e-07
2.52173e-07
2.08162e-07
1.8993e-07
1.84648e-07
1.8816e-07
1.99322e-07
2.18487e-07
2.47052e-07
2.8733e-07
3.42325e-07
4.15116e-07
5.05001e-07
6.0786e-07
7.16554e-07
8.20587e-07
9.07848e-07
9.67456e-07
9.92606e-07
9.82254e-07
9.40953e-07
8.77049e-07
8.00139e-07
7.18853e-07
6.39592e-07
5.66273e-07
5.00723e-07
4.43321e-07
3.93606e-07
3.50716e-07
3.13678e-07
2.81554e-07
2.53518e-07
2.28873e-07
2.07048e-07
1.87584e-07
1.7012e-07
1.54372e-07
1.4012e-07
1.27198e-07
1.1548e-07
1.04876e-07
9.53174e-08
8.67563e-08
7.91565e-08
7.24889e-08
6.67288e-08
6.18533e-08
5.78415e-08
5.46752e-08
5.23415e-08
5.08356e-08
5.01652e-08
5.03537e-08
5.14449e-08
5.35067e-08
5.66356e-08
6.09621e-08
6.66576e-08
7.3946e-08
8.31218e-08
9.45764e-08
1.08838e-07
1.26624e-07
1.48912e-07
1.77023e-07
2.12719e-07
2.5831e-07
3.16769e-07
3.91867e-07
4.88384e-07
6.12513e-07
7.7273e-07
9.81595e-07
1.25927e-06
1.6389e-06
2.15229e-06
2.02165e-06
6.73104e-07
3.11849e-07
2.11246e-07
1.7191e-07
1.5422e-07
1.47162e-07
1.46975e-07
1.52391e-07
1.63321e-07
1.80452e-07
2.05173e-07
2.39608e-07
2.86633e-07
3.49493e-07
4.29612e-07
5.24398e-07
6.28544e-07
7.32889e-07
8.25565e-07
8.94632e-07
9.31299e-07
9.3235e-07
9.00731e-07
8.44106e-07
7.72212e-07
6.94258e-07
6.17282e-07
5.45687e-07
4.81586e-07
4.25497e-07
3.77009e-07
3.35272e-07
2.99311e-07
2.68189e-07
2.41078e-07
2.17287e-07
1.96251e-07
1.77521e-07
1.60744e-07
1.45645e-07
1.32016e-07
1.19698e-07
1.08574e-07
9.85581e-08
8.9588e-08
8.1617e-08
7.46088e-08
6.85338e-08
6.33656e-08
5.90804e-08
5.56576e-08
5.30814e-08
5.1344e-08
5.04493e-08
5.04168e-08
5.12857e-08
5.31198e-08
5.60117e-08
6.00885e-08
6.55197e-08
7.2528e-08
8.14073e-08
9.2549e-08
1.06481e-07
1.23918e-07
1.45837e-07
1.73551e-07
2.08813e-07
2.53918e-07
3.1181e-07
3.86209e-07
4.81806e-07
6.04654e-07
7.63031e-07
9.69235e-07
1.24316e-06
1.61793e-06
2.12747e-06
1.98805e-06
5.80215e-07
2.70901e-07
1.82808e-07
1.4718e-07
1.30251e-07
1.22393e-07
1.20196e-07
1.22383e-07
1.28649e-07
1.39289e-07
1.55108e-07
1.77445e-07
2.0827e-07
2.50257e-07
3.06596e-07
3.796e-07
4.67679e-07
5.66766e-07
6.68798e-07
7.62406e-07
8.35316e-07
8.77688e-07
8.84998e-07
8.59146e-07
8.07294e-07
7.39184e-07
6.64291e-07
5.89942e-07
5.20721e-07
4.5882e-07
4.04769e-07
3.58144e-07
3.1809e-07
2.83632e-07
2.53846e-07
2.27921e-07
2.05185e-07
1.85095e-07
1.67222e-07
1.5123e-07
1.36862e-07
1.23924e-07
1.1227e-07
1.01792e-07
9.24126e-08
8.40726e-08
7.6728e-08
7.03431e-08
6.48877e-08
6.03348e-08
5.66612e-08
5.38484e-08
5.18856e-08
5.07732e-08
5.05267e-08
5.11814e-08
5.27966e-08
5.5461e-08
5.92985e-08
6.44762e-08
7.12153e-08
7.98093e-08
9.06493e-08
1.04262e-07
1.21364e-07
1.42925e-07
1.70257e-07
2.05102e-07
2.49741e-07
3.07086e-07
3.80805e-07
4.75494e-07
5.97062e-07
7.53572e-07
9.5705e-07
1.22709e-06
1.59677e-06
2.10192e-06
1.95526e-06
5.13235e-07
2.41979e-07
1.63117e-07
1.30259e-07
1.13988e-07
1.05713e-07
1.023e-07
1.02499e-07
1.05894e-07
1.12559e-07
1.22956e-07
1.37931e-07
1.58793e-07
1.87412e-07
2.26322e-07
2.7862e-07
3.46848e-07
4.30004e-07
5.24706e-07
6.23559e-07
7.15609e-07
7.88573e-07
8.32225e-07
8.41519e-07
8.17942e-07
7.68485e-07
7.02892e-07
6.30674e-07
5.59131e-07
4.92752e-07
4.33609e-07
3.8213e-07
3.37834e-07
2.99841e-07
2.67185e-07
2.38965e-07
2.14402e-07
1.92857e-07
1.73818e-07
1.56884e-07
1.41744e-07
1.28165e-07
1.15968e-07
1.05022e-07
9.52308e-08
8.65232e-08
7.88452e-08
7.21549e-08
6.64171e-08
6.16017e-08
5.76826e-08
5.46386e-08
5.24561e-08
5.1132e-08
5.06782e-08
5.11258e-08
5.25301e-08
5.49758e-08
5.85836e-08
6.35177e-08
6.99979e-08
7.83169e-08
8.88654e-08
1.02171e-07
1.18947e-07
1.40163e-07
1.67125e-07
2.0157e-07
2.45759e-07
3.02577e-07
3.75634e-07
4.69428e-07
5.89713e-07
7.4433e-07
9.45019e-07
1.21107e-06
1.57544e-06
2.07572e-06
1.92316e-06
4.66705e-07
2.22456e-07
1.49997e-07
1.18995e-07
1.0314e-07
9.45626e-08
9.03232e-08
8.91917e-08
9.06871e-08
9.47487e-08
1.01624e-07
1.11856e-07
1.26322e-07
1.46319e-07
1.73677e-07
2.10861e-07
2.60894e-07
3.2617e-07
4.06003e-07
4.97255e-07
5.92781e-07
6.8182e-07
7.52213e-07
7.93821e-07
8.01728e-07
7.77608e-07
7.28618e-07
6.64531e-07
5.94697e-07
5.26115e-07
4.62941e-07
4.06968e-07
3.58441e-07
3.16786e-07
2.811e-07
2.50433e-07
2.23918e-07
2.00821e-07
1.80544e-07
1.62617e-07
1.46671e-07
1.32427e-07
1.19672e-07
1.0825e-07
9.80447e-08
8.89695e-08
8.09605e-08
7.39682e-08
6.79524e-08
6.28791e-08
5.87193e-08
5.5449e-08
5.30519e-08
5.15216e-08
5.08664e-08
5.11135e-08
5.23143e-08
5.45494e-08
5.79361e-08
6.26358e-08
6.88665e-08
7.69198e-08
8.71864e-08
1.00193e-07
1.16653e-07
1.37535e-07
1.64141e-07
1.98198e-07
2.41955e-07
2.98263e-07
3.70673e-07
4.63581e-07
5.82578e-07
7.35275e-07
9.33117e-07
1.19507e-06
1.55396e-06
2.04893e-06
1.89169e-06
4.36052e-07
2.10144e-07
1.41775e-07
1.11853e-07
9.61639e-08
8.73002e-08
8.24402e-08
8.03606e-08
8.05332e-08
8.28058e-08
8.72861e-08
9.43138e-08
1.04483e-07
1.187e-07
1.38281e-07
1.65062e-07
2.01501e-07
2.50577e-07
3.14273e-07
3.92047e-07
4.80666e-07
5.72867e-07
6.57876e-07
7.23727e-07
7.60753e-07
7.64714e-07
7.3797e-07
6.881e-07
6.24893e-07
5.57346e-07
4.9192e-07
4.32249e-07
3.79739e-07
3.34406e-07
2.95577e-07
2.6233e-07
2.33743e-07
2.08998e-07
1.87412e-07
1.68438e-07
1.51648e-07
1.36714e-07
1.23387e-07
1.1148e-07
1.00856e-07
9.14125e-08
8.3074e-08
7.57826e-08
6.94925e-08
6.41655e-08
5.97692e-08
5.62772e-08
5.367e-08
5.19385e-08
5.10873e-08
5.11401e-08
5.21439e-08
5.41758e-08
5.73492e-08
6.18229e-08
6.78127e-08
7.56091e-08
8.56022e-08
9.83188e-08
1.14472e-07
1.35029e-07
1.61288e-07
1.94972e-07
2.3831e-07
2.94123e-07
3.65898e-07
4.57924e-07
5.75624e-07
7.26372e-07
9.21313e-07
1.17908e-06
1.53232e-06
2.02161e-06
1.86077e-06
4.1718e-07
2.02962e-07
1.36978e-07
1.07593e-07
9.18965e-08
8.27556e-08
7.74102e-08
7.46329e-08
7.38582e-08
7.48689e-08
7.76756e-08
8.24785e-08
8.96755e-08
9.99024e-08
1.14104e-07
1.33635e-07
1.60376e-07
1.96829e-07
2.4595e-07
3.09092e-07
3.85755e-07
4.72301e-07
5.6106e-07
6.411e-07
7.00762e-07
7.31205e-07
7.29341e-07
6.9858e-07
6.47069e-07
5.84519e-07
5.19363e-07
4.57331e-07
4.01407e-07
3.52553e-07
3.10549e-07
2.74626e-07
2.43864e-07
2.1738e-07
1.94413e-07
1.74341e-07
1.56672e-07
1.41024e-07
1.27109e-07
1.14708e-07
1.03661e-07
9.38484e-08
8.51818e-08
7.75943e-08
7.10336e-08
6.54569e-08
6.08287e-08
5.71194e-08
5.43069e-08
5.23789e-08
5.13371e-08
5.12011e-08
5.20144e-08
5.385e-08
5.68178e-08
6.10735e-08
6.68306e-08
7.43784e-08
8.41063e-08
9.65411e-08
1.12396e-07
1.32637e-07
1.58561e-07
1.91881e-07
2.34814e-07
2.90145e-07
3.61296e-07
4.52444e-07
5.68836e-07
7.17607e-07
9.09598e-07
1.16311e-06
1.51057e-06
1.99383e-06
1.83031e-06
4.04395e-07
1.98379e-07
1.34064e-07
1.0507e-07
8.93694e-08
8.00291e-08
7.43362e-08
7.10626e-08
6.96181e-08
6.97408e-08
7.13742e-08
7.46221e-08
7.97456e-08
8.71888e-08
9.76302e-08
1.12062e-07
1.31897e-07
1.59083e-07
1.96179e-07
2.46045e-07
3.09532e-07
3.85792e-07
4.70526e-07
5.55457e-07
6.29453e-07
6.81357e-07
7.03545e-07
6.94487e-07
6.58894e-07
6.05477e-07
5.43695e-07
4.81206e-07
4.22843e-07
3.70872e-07
3.258e-07
2.87181e-07
2.5418e-07
2.25892e-07
2.0149e-07
1.80279e-07
1.61701e-07
1.45321e-07
1.30807e-07
1.17908e-07
1.06437e-07
9.62576e-08
8.72669e-08
7.93883e-08
7.25625e-08
6.67421e-08
6.18878e-08
5.7967e-08
5.4955e-08
5.28366e-08
5.16103e-08
5.12922e-08
5.19221e-08
5.35692e-08
5.63398e-08
6.03863e-08
6.59202e-08
7.32289e-08
8.27016e-08
9.48648e-08
1.10432e-07
1.30369e-07
1.55971e-07
1.88945e-07
2.3149e-07
2.86357e-07
3.56901e-07
4.47178e-07
5.62258e-07
7.0903e-07
8.98031e-07
1.14722e-06
1.48878e-06
1.96568e-06
1.80017e-06
3.96114e-07
1.95369e-07
1.32232e-07
1.03612e-07
8.79794e-08
7.85465e-08
7.26421e-08
6.90433e-08
6.71463e-08
6.66607e-08
6.74846e-08
6.9656e-08
7.33415e-08
7.88509e-08
8.66737e-08
9.75399e-08
1.12507e-07
1.33073e-07
1.61291e-07
1.9981e-07
2.50961e-07
3.15397e-07
3.91586e-07
4.74327e-07
5.54605e-07
6.21174e-07
6.63699e-07
6.76206e-07
6.59061e-07
6.18369e-07
5.63253e-07
5.02657e-07
4.43245e-07
3.88849e-07
3.40996e-07
2.99764e-07
2.64525e-07
2.34407e-07
2.08541e-07
1.86169e-07
1.66668e-07
1.49549e-07
1.34435e-07
1.21039e-07
1.09151e-07
9.86109e-08
8.93039e-08
8.11427e-08
7.40606e-08
6.80049e-08
6.29327e-08
5.88084e-08
5.56047e-08
5.33035e-08
5.19004e-08
5.14082e-08
5.18631e-08
5.33307e-08
5.59136e-08
5.97613e-08
6.50828e-08
7.2164e-08
8.13934e-08
9.32979e-08
1.08592e-07
1.28241e-07
1.53539e-07
1.86187e-07
2.28369e-07
2.82798e-07
3.52755e-07
4.42177e-07
5.55949e-07
7.0071e-07
8.86695e-07
1.13152e-06
1.46709e-06
1.93736e-06
1.7705e-06
3.90646e-07
1.93064e-07
1.30942e-07
1.02799e-07
8.73548e-08
7.7949e-08
7.19596e-08
6.81789e-08
6.6e-08
6.51161e-08
6.53966e-08
6.68353e-08
6.95337e-08
7.37083e-08
7.97147e-08
8.80936e-08
9.96387e-08
1.15492e-07
1.37258e-07
1.67113e-07
2.07726e-07
2.60765e-07
3.26569e-07
4.02652e-07
4.82725e-07
5.5703e-07
6.14467e-07
6.45983e-07
6.47707e-07
6.22124e-07
5.76633e-07
5.20455e-07
4.61706e-07
4.05862e-07
3.55711e-07
3.12078e-07
2.7468e-07
2.42756e-07
2.15434e-07
1.91905e-07
1.71487e-07
1.53637e-07
1.37932e-07
1.24053e-07
1.11758e-07
1.00872e-07
9.12617e-08
8.28307e-08
7.55048e-08
6.92258e-08
6.39469e-08
5.96297e-08
5.62442e-08
5.377e-08
5.21996e-08
5.1543e-08
5.18328e-08
5.31312e-08
5.55376e-08
5.91984e-08
6.432e-08
7.11872e-08
8.01879e-08
9.18495e-08
1.06888e-07
1.26269e-07
1.51287e-07
1.83637e-07
2.25487e-07
2.7951e-07
3.48912e-07
4.37502e-07
5.49977e-07
6.92727e-07
8.75685e-07
1.11612e-06
1.44567e-06
1.90908e-06
1.74151e-06
3.86257e-07
1.90785e-07
1.29877e-07
1.02411e-07
8.73021e-08
7.80435e-08
7.20817e-08
6.82363e-08
6.59076e-08
6.47831e-08
6.47155e-08
6.56697e-08
6.77037e-08
7.09697e-08
7.57298e-08
8.23903e-08
9.15531e-08
1.04092e-07
1.21254e-07
1.44772e-07
1.76944e-07
2.2014e-07
2.75631e-07
3.42951e-07
4.18423e-07
4.9457e-07
5.61066e-07
6.07413e-07
6.26419e-07
6.16728e-07
5.8298e-07
5.33546e-07
4.77304e-07
4.2121e-07
3.69434e-07
3.23745e-07
2.84361e-07
2.50721e-07
2.21996e-07
1.97347e-07
1.76044e-07
1.57492e-07
1.41223e-07
1.26883e-07
1.14206e-07
1.02994e-07
9.3101e-08
8.44191e-08
7.68665e-08
7.03803e-08
6.49096e-08
6.04135e-08
5.68593e-08
5.42243e-08
5.24986e-08
5.16892e-08
5.18258e-08
5.29674e-08
5.52102e-08
5.86978e-08
6.36346e-08
7.03038e-08
7.90934e-08
9.05317e-08
1.05336e-07
1.24475e-07
1.49243e-07
1.81331e-07
2.22888e-07
2.76548e-07
3.45436e-07
4.33227e-07
5.44427e-07
6.85179e-07
8.65117e-07
1.10118e-06
1.42469e-06
1.88107e-06
1.71338e-06
3.81724e-07
1.88283e-07
1.2898e-07
1.02408e-07
8.77719e-08
7.87647e-08
7.29226e-08
6.9105e-08
6.67278e-08
6.54807e-08
6.52085e-08
6.58589e-08
6.74615e-08
7.01247e-08
7.40465e-08
7.95387e-08
8.70669e-08
9.73097e-08
1.11241e-07
1.30234e-07
1.56159e-07
1.91372e-07
2.37693e-07
2.95909e-07
3.64418e-07
4.38125e-07
5.08401e-07
5.64749e-07
5.97943e-07
6.03281e-07
5.8219e-07
5.41234e-07
4.89218e-07
4.3416e-07
3.81578e-07
3.34308e-07
2.9321e-07
2.5802e-07
2.28002e-07
2.02316e-07
1.80193e-07
1.60993e-07
1.44207e-07
1.29448e-07
1.16425e-07
1.04919e-07
9.4772e-08
8.58651e-08
7.81097e-08
7.14377e-08
6.57951e-08
6.11381e-08
5.74319e-08
5.46518e-08
5.27857e-08
5.18381e-08
5.18361e-08
5.28357e-08
5.49303e-08
5.82612e-08
6.30309e-08
6.95216e-08
7.81218e-08
8.93611e-08
1.0396e-07
1.2289e-07
1.47447e-07
1.79318e-07
2.20634e-07
2.73986e-07
3.42413e-07
4.29453e-07
5.39414e-07
6.78193e-07
8.55138e-07
1.08686e-06
1.40436e-06
1.8536e-06
1.68631e-06
3.77706e-07
1.86089e-07
1.28554e-07
1.02964e-07
8.88641e-08
8.01657e-08
7.45011e-08
7.07736e-08
6.84193e-08
6.71348e-08
6.67629e-08
6.7242e-08
6.85835e-08
7.08668e-08
7.42463e-08
7.89686e-08
8.54034e-08
9.40897e-08
1.05802e-07
1.21637e-07
1.43111e-07
1.72234e-07
2.11041e-07
2.60952e-07
3.21783e-07
3.90486e-07
4.60449e-07
5.22172e-07
5.65674e-07
5.83833e-07
5.75006e-07
5.43383e-07
4.96901e-07
4.44076e-07
3.91559e-07
3.43279e-07
3.0083e-07
2.64332e-07
2.33194e-07
2.06603e-07
1.83766e-07
1.64003e-07
1.46772e-07
1.31654e-07
1.18335e-07
1.06581e-07
9.62183e-08
8.71209e-08
7.91935e-08
7.23636e-08
6.65741e-08
6.1779e-08
5.79419e-08
5.50363e-08
5.30481e-08
5.198e-08
5.18567e-08
5.27319e-08
5.46967e-08
5.78904e-08
6.2514e-08
6.88496e-08
7.72865e-08
8.8357e-08
1.02785e-07
1.21548e-07
1.45943e-07
1.77655e-07
2.18796e-07
2.71908e-07
3.39943e-07
4.26292e-07
5.35063e-07
6.71912e-07
8.45909e-07
1.07335e-06
1.38494e-06
1.827e-06
1.66062e-06
3.76817e-07
1.85328e-07
1.29222e-07
1.04475e-07
9.08499e-08
8.24362e-08
7.69473e-08
7.33252e-08
7.10245e-08
6.97498e-08
6.9345e-08
6.97433e-08
7.09448e-08
7.30101e-08
7.60636e-08
8.03068e-08
8.60423e-08
9.37096e-08
1.03938e-07
1.17618e-07
1.3598e-07
1.60677e-07
1.93707e-07
2.3668e-07
2.90239e-07
3.52859e-07
4.19816e-07
4.83104e-07
5.32986e-07
5.6097e-07
5.62911e-07
5.40509e-07
5.00263e-07
4.50596e-07
3.98954e-07
3.50263e-07
3.06884e-07
2.69378e-07
2.37345e-07
2.10023e-07
1.8661e-07
1.66398e-07
1.48815e-07
1.33416e-07
1.19867e-07
1.07919e-07
9.73897e-08
8.81438e-08
8.00815e-08
7.31268e-08
6.72202e-08
6.23142e-08
5.83709e-08
5.53625e-08
5.32736e-08
5.21053e-08
5.18806e-08
5.26513e-08
5.45069e-08
5.75852e-08
6.20865e-08
6.82934e-08
7.6597e-08
8.75334e-08
1.01832e-07
1.20476e-07
1.44767e-07
1.76387e-07
2.17428e-07
2.70383e-07
3.38103e-07
4.2383e-07
5.3147e-07
6.66442e-07
8.37555e-07
1.06082e-06
1.36662e-06
1.80157e-06
1.63675e-06
3.79443e-07
1.8657e-07
1.3148e-07
1.0734e-07
9.40436e-08
8.5819e-08
8.04436e-08
7.68899e-08
7.46279e-08
7.33691e-08
7.29593e-08
7.33289e-08
7.44708e-08
7.64327e-08
7.93183e-08
8.32977e-08
8.86261e-08
9.56724e-08
1.04962e-07
1.17233e-07
1.33505e-07
1.55148e-07
1.83903e-07
2.21417e-07
2.68709e-07
3.25233e-07
3.87776e-07
4.49901e-07
5.02729e-07
5.37312e-07
5.47782e-07
5.33612e-07
4.99607e-07
4.53616e-07
4.03484e-07
3.54941e-07
3.11074e-07
2.72902e-07
2.40241e-07
2.12402e-07
1.88585e-07
1.68064e-07
1.50242e-07
1.34656e-07
1.20955e-07
1.08879e-07
9.82389e-08
8.88934e-08
8.07391e-08
7.36979e-08
6.77085e-08
6.27225e-08
5.87011e-08
5.56158e-08
5.34504e-08
5.22049e-08
5.1901e-08
5.25896e-08
5.43589e-08
5.7346e-08
6.17515e-08
6.78593e-08
7.60635e-08
8.69053e-08
1.01121e-07
1.19702e-07
1.43956e-07
1.75562e-07
2.16591e-07
2.69479e-07
3.36973e-07
4.22155e-07
5.2873e-07
6.61887e-07
8.30196e-07
1.0494e-06
1.34961e-06
1.77759e-06
1.61497e-06
3.86488e-07
1.90613e-07
1.35918e-07
1.12001e-07
9.87796e-08
9.05659e-08
8.5176e-08
8.16011e-08
7.93196e-08
7.80469e-08
7.76288e-08
7.79931e-08
7.91273e-08
8.10692e-08
8.3908e-08
8.77912e-08
9.29399e-08
9.96725e-08
1.08439e-07
1.19866e-07
1.34814e-07
1.54436e-07
1.80206e-07
2.13656e-07
2.559e-07
3.06936e-07
3.6462e-07
4.23882e-07
4.76951e-07
5.15096e-07
5.315e-07
5.23918e-07
4.95504e-07
4.53238e-07
4.04998e-07
3.57069e-07
3.13148e-07
2.74677e-07
2.41693e-07
2.13583e-07
1.89562e-07
1.68894e-07
1.50965e-07
1.35299e-07
1.21536e-07
1.09408e-07
9.87208e-08
8.9331e-08
8.11333e-08
7.40484e-08
6.80147e-08
6.29834e-08
5.89155e-08
5.57824e-08
5.35675e-08
5.22702e-08
5.19121e-08
5.25432e-08
5.42516e-08
5.71745e-08
6.15138e-08
6.75558e-08
7.56989e-08
8.64912e-08
1.00678e-07
1.19261e-07
1.43555e-07
1.75237e-07
2.16353e-07
2.69276e-07
3.36642e-07
4.21365e-07
5.26947e-07
6.58361e-07
8.23961e-07
1.03926e-06
1.33411e-06
1.75532e-06
1.59553e-06
4.00045e-07
1.98839e-07
1.43404e-07
1.19016e-07
1.05418e-07
9.6906e-08
9.12864e-08
8.75421e-08
8.51443e-08
8.38016e-08
8.3354e-08
8.3723e-08
8.48889e-08
8.68809e-08
8.97763e-08
9.37059e-08
9.88663e-08
1.05539e-07
1.1412e-07
1.25153e-07
1.39381e-07
1.57788e-07
1.81625e-07
2.12218e-07
2.50615e-07
2.97041e-07
3.50016e-07
4.05504e-07
4.56832e-07
4.95897e-07
5.15606e-07
5.12597e-07
4.88632e-07
4.49713e-07
4.03476e-07
3.56504e-07
3.1293e-07
2.74539e-07
2.41556e-07
2.13448e-07
1.89445e-07
1.68808e-07
1.50918e-07
1.35291e-07
1.21563e-07
1.09465e-07
9.88004e-08
8.94264e-08
8.12379e-08
7.4156e-08
6.81197e-08
6.30807e-08
5.90008e-08
5.58514e-08
5.36163e-08
5.22953e-08
5.19099e-08
5.25105e-08
5.41858e-08
5.70744e-08
6.13802e-08
6.73934e-08
7.55188e-08
8.63131e-08
1.00533e-07
1.19193e-07
1.43616e-07
1.75476e-07
2.16792e-07
2.69864e-07
3.37206e-07
4.21559e-07
5.26225e-07
6.55975e-07
8.18977e-07
1.03056e-06
1.32031e-06
1.73506e-06
1.5787e-06
4.2415e-07
2.13271e-07
1.54787e-07
1.28708e-07
1.14033e-07
1.04797e-07
9.86822e-08
9.46049e-08
9.19959e-08
9.0538e-08
9.00532e-08
9.04503e-08
9.1699e-08
9.38189e-08
9.68773e-08
1.00992e-07
1.06342e-07
1.13184e-07
1.21874e-07
1.32897e-07
1.46906e-07
1.64757e-07
1.87524e-07
2.16281e-07
2.51898e-07
2.94617e-07
3.43344e-07
3.94622e-07
4.42698e-07
4.80386e-07
5.00902e-07
5.0038e-07
4.79538e-07
4.4335e-07
3.99023e-07
3.53255e-07
3.10396e-07
2.72458e-07
2.39809e-07
2.11977e-07
1.88217e-07
1.67794e-07
1.50089e-07
1.3462e-07
1.21026e-07
1.0904e-07
9.84681e-08
8.91708e-08
8.1045e-08
7.40136e-08
6.80175e-08
6.30097e-08
5.89529e-08
5.58199e-08
5.35952e-08
5.22796e-08
5.18953e-08
5.2494e-08
5.41659e-08
5.70521e-08
6.13601e-08
6.73858e-08
7.55418e-08
8.63964e-08
1.00722e-07
1.19555e-07
1.44221e-07
1.76385e-07
2.1803e-07
2.71373e-07
3.38791e-07
4.22845e-07
5.26641e-07
6.54776e-07
8.15269e-07
1.0233e-06
1.30828e-06
1.71696e-06
1.56544e-06
4.64038e-07
2.3484e-07
1.6932e-07
1.40052e-07
1.23675e-07
1.13443e-07
1.06726e-07
1.02291e-07
9.94917e-08
9.79659e-08
9.75091e-08
9.80131e-08
9.94365e-08
1.0179e-07
1.05135e-07
1.09579e-07
1.15291e-07
1.22511e-07
1.31567e-07
1.42903e-07
1.57107e-07
1.74931e-07
1.97294e-07
2.25074e-07
2.58779e-07
2.98502e-07
3.43173e-07
3.89868e-07
4.33651e-07
4.68201e-07
4.87372e-07
4.87348e-07
4.68279e-07
4.34336e-07
3.92041e-07
3.47789e-07
3.05999e-07
2.68835e-07
2.36784e-07
2.09442e-07
1.86097e-07
1.66025e-07
1.48619e-07
1.33402e-07
1.2002e-07
1.08213e-07
9.77931e-08
8.86235e-08
8.06056e-08
7.36654e-08
6.77461e-08
6.28028e-08
5.88001e-08
5.5712e-08
5.35248e-08
5.22407e-08
5.18837e-08
5.25077e-08
5.42057e-08
5.71223e-08
6.14706e-08
6.75541e-08
7.57961e-08
8.67787e-08
1.01291e-07
1.20379e-07
1.45384e-07
1.77958e-07
2.20037e-07
2.73742e-07
3.413e-07
4.25095e-07
5.28052e-07
6.5462e-07
8.12705e-07
1.01739e-06
1.29799e-06
1.7011e-06
1.55821e-06
5.31755e-07
2.619e-07
1.85224e-07
1.51811e-07
1.33471e-07
1.22196e-07
1.14908e-07
1.10178e-07
1.07263e-07
1.0575e-07
1.05403e-07
1.06097e-07
1.0778e-07
1.10454e-07
1.14174e-07
1.19043e-07
1.2522e-07
1.32929e-07
1.42478e-07
1.54275e-07
1.68845e-07
1.86864e-07
2.08942e-07
2.35696e-07
2.67583e-07
3.04526e-07
3.45441e-07
3.8773e-07
4.27106e-07
4.58057e-07
4.7513e-07
4.74757e-07
4.56776e-07
4.24682e-07
3.84315e-07
3.41658e-07
3.01065e-07
2.64786e-07
2.33415e-07
2.06621e-07
1.8373e-07
1.64043e-07
1.46962e-07
1.32021e-07
1.18873e-07
1.07264e-07
9.70115e-08
8.7985e-08
8.0089e-08
7.32528e-08
6.7422e-08
6.25539e-08
5.86149e-08
5.55808e-08
5.34396e-08
5.21951e-08
5.18735e-08
5.2531e-08
5.42637e-08
5.72205e-08
6.16204e-08
6.77748e-08
7.61184e-08
8.72475e-08
1.01967e-07
1.21336e-07
1.46703e-07
1.79705e-07
2.22225e-07
2.76281e-07
3.43954e-07
4.27453e-07
5.29547e-07
6.54568e-07
8.1036e-07
1.01198e-06
1.28871e-06
1.68722e-06
1.55402e-06
6.003e-07
2.88807e-07
2.01564e-07
1.64089e-07
1.43725e-07
1.3132e-07
1.23379e-07
1.18288e-07
1.15207e-07
1.13669e-07
1.13409e-07
1.14279e-07
1.16213e-07
1.19206e-07
1.23303e-07
1.28598e-07
1.35239e-07