/*--------------------------------*- C++ -*----------------------------------*\
  =========                 |
  \\      /  F ield         | OpenFOAM: The Open Source CFD Toolbox
   \\    /   O peration     | Website:  https://openfoam.org
    \\  /    A nd           | Version:  7
     \\/     M anipulation  |
\*---------------------------------------------------------------------------*/
FoamFile
{
    version     2.0;
    format      ascii;
    class       volScalarField;
    location    "20000";
    object      k;
}
// * * * * * * * * * * * * * * * * * * * * * * * * * * * * * * * * * * * * * //

dimensions      [0 2 -2 0 0 0 0];

internalField   nonuniform List<scalar> 
10981
(
6.89444e-06
3.33654e-05
4.0873e-05
4.47897e-05
4.75471e-05
4.98742e-05
5.20146e-05
5.40374e-05
5.59496e-05
5.77388e-05
5.93882e-05
6.08819e-05
6.22058e-05
6.33484e-05
6.42998e-05
6.50527e-05
6.56015e-05
6.59425e-05
6.6074e-05
6.59963e-05
6.57112e-05
6.52226e-05
6.45358e-05
6.36576e-05
6.25966e-05
6.13624e-05
5.99661e-05
5.84199e-05
5.67372e-05
5.49324e-05
5.3021e-05
5.10197e-05
4.89456e-05
4.68171e-05
4.4653e-05
4.24724e-05
4.02947e-05
3.81392e-05
3.60245e-05
3.39686e-05
3.19877e-05
3.00964e-05
2.83069e-05
2.6629e-05
2.50693e-05
2.36319e-05
2.23182e-05
2.11273e-05
2.00564e-05
1.91015e-05
1.82579e-05
1.75206e-05
1.68845e-05
1.6345e-05
1.58977e-05
1.55381e-05
1.52614e-05
1.50625e-05
1.49351e-05
1.48721e-05
1.48657e-05
1.49083e-05
1.4993e-05
1.51141e-05
1.52683e-05
1.54542e-05
1.56724e-05
1.59249e-05
1.62133e-05
1.65376e-05
1.68927e-05
1.72645e-05
1.76245e-05
1.79197e-05
1.80547e-05
1.78455e-05
1.68768e-05
1.38446e-05
1.99704e-06
6.18757e-06
3.05526e-05
3.78502e-05
4.20088e-05
4.50229e-05
4.75108e-05
4.97236e-05
5.17657e-05
5.36748e-05
5.54587e-05
5.7112e-05
5.86241e-05
5.99831e-05
6.11774e-05
6.21965e-05
6.30312e-05
6.36742e-05
6.41201e-05
6.43651e-05
6.44075e-05
6.42474e-05
6.38868e-05
6.33292e-05
6.25801e-05
6.16463e-05
6.0536e-05
5.9259e-05
5.78264e-05
5.62505e-05
5.4545e-05
5.27247e-05
5.08056e-05
4.88048e-05
4.67404e-05
4.46311e-05
4.24965e-05
4.03563e-05
3.82303e-05
3.61379e-05
3.40977e-05
3.21269e-05
3.02409e-05
2.84527e-05
2.67728e-05
2.52087e-05
2.37651e-05
2.2444e-05
2.12448e-05
2.01653e-05
1.92016e-05
1.83491e-05
1.76029e-05
1.6958e-05
1.64096e-05
1.59534e-05
1.55849e-05
1.52993e-05
1.50915e-05
1.49555e-05
1.48844e-05
1.48708e-05
1.49074e-05
1.49877e-05
1.51066e-05
1.52609e-05
1.54495e-05
1.56734e-05
1.59344e-05
1.62341e-05
1.65717e-05
1.69412e-05
1.73275e-05
1.77003e-05
1.80052e-05
1.81455e-05
1.79361e-05
1.69605e-05
1.39116e-05
2.01026e-06
5.0704e-06
2.66881e-05
3.36832e-05
3.79367e-05
4.1212e-05
4.39944e-05
4.64758e-05
4.87432e-05
5.08362e-05
5.27714e-05
5.45533e-05
5.61802e-05
5.7647e-05
5.89476e-05
6.00748e-05
6.10219e-05
6.17829e-05
6.23524e-05
6.27263e-05
6.2902e-05
6.28784e-05
6.26559e-05
6.22367e-05
6.16246e-05
6.08249e-05
5.98446e-05
5.86921e-05
5.73775e-05
5.59121e-05
5.43088e-05
5.25817e-05
5.07463e-05
4.88194e-05
4.68188e-05
4.47634e-05
4.26728e-05
4.05672e-05
3.84668e-05
3.63918e-05
3.43615e-05
3.2394e-05
3.05057e-05
2.87106e-05
2.70201e-05
2.54428e-05
2.39843e-05
2.26471e-05
2.14314e-05
2.03353e-05
1.93553e-05
1.8487e-05
1.77255e-05
1.70659e-05
1.65033e-05
1.60333e-05
1.56512e-05
1.53526e-05
1.51322e-05
1.49843e-05
1.49022e-05
1.4879e-05
1.49078e-05
1.49822e-05
1.50977e-05
1.52512e-05
1.54419e-05
1.56709e-05
1.59399e-05
1.62504e-05
1.66011e-05
1.69853e-05
1.73867e-05
1.77741e-05
1.80916e-05
1.82411e-05
1.80364e-05
1.70598e-05
1.40024e-05
2.03431e-06
3.87305e-06
2.23498e-05
2.97947e-05
3.43263e-05
3.77849e-05
4.0711e-05
4.33187e-05
4.5703e-05
4.79068e-05
4.99496e-05
5.18388e-05
5.35756e-05
5.5158e-05
5.65813e-05
5.78399e-05
5.89273e-05
5.98367e-05
6.0562e-05
6.10973e-05
6.14383e-05
6.15817e-05
6.1526e-05
6.12714e-05
6.08198e-05
6.01749e-05
5.93423e-05
5.83293e-05
5.71448e-05
5.57995e-05
5.43055e-05
5.26765e-05
5.09276e-05
4.90755e-05
4.71378e-05
4.51337e-05
4.30829e-05
4.10061e-05
3.89242e-05
3.68579e-05
3.48276e-05
3.28524e-05
3.09498e-05
2.91351e-05
2.74211e-05
2.58173e-05
2.43305e-05
2.29643e-05
2.17197e-05
2.05953e-05
1.95881e-05
1.86938e-05
1.79077e-05
1.72247e-05
1.664e-05
1.61489e-05
1.57468e-05
1.54291e-05
1.51907e-05
1.50261e-05
1.49289e-05
1.48925e-05
1.49104e-05
1.49765e-05
1.50864e-05
1.52374e-05
1.54289e-05
1.56617e-05
1.59377e-05
1.62582e-05
1.66216e-05
1.70208e-05
1.74386e-05
1.78427e-05
1.81761e-05
1.83393e-05
1.81453e-05
1.71767e-05
1.41275e-05
2.07099e-06
2.71751e-06
1.72318e-05
2.55087e-05
3.09478e-05
3.50577e-05
3.83795e-05
4.11888e-05
4.36464e-05
4.58486e-05
4.78538e-05
4.96969e-05
5.13976e-05
5.2966e-05
5.44049e-05
5.57118e-05
5.68804e-05
5.79016e-05
5.8765e-05
5.94596e-05
5.99752e-05
6.03032e-05
6.04367e-05
6.03716e-05
6.01059e-05
5.96405e-05
5.89784e-05
5.81251e-05
5.70884e-05
5.58777e-05
5.45048e-05
5.2983e-05
5.13271e-05
4.95538e-05
4.76811e-05
4.5728e-05
4.37151e-05
4.16632e-05
3.95942e-05
3.75296e-05
3.54909e-05
3.34983e-05
3.15707e-05
2.97249e-05
2.7975e-05
2.63322e-05
2.48045e-05
2.33968e-05
2.21111e-05
2.09468e-05
1.99015e-05
1.89711e-05
1.81511e-05
1.74362e-05
1.68215e-05
1.63022e-05
1.58735e-05
1.55308e-05
1.5269e-05
1.50828e-05
1.49663e-05
1.49129e-05
1.49166e-05
1.49716e-05
1.50736e-05
1.522e-05
1.54102e-05
1.56451e-05
1.59267e-05
1.6256e-05
1.66315e-05
1.70454e-05
1.74802e-05
1.79024e-05
1.8254e-05
1.84347e-05
1.82576e-05
1.73076e-05
1.42874e-05
2.11959e-06
1.96814e-06
1.32468e-05
2.09919e-05
2.67999e-05
3.16205e-05
3.57138e-05
3.91959e-05
4.21557e-05
4.46759e-05
4.68352e-05
4.87046e-05
5.03447e-05
5.1804e-05
5.31188e-05
5.43131e-05
5.53999e-05
5.63822e-05
5.72545e-05
5.80055e-05
5.86198e-05
5.90811e-05
5.93735e-05
5.94837e-05
5.94017e-05
5.91213e-05
5.86402e-05
5.79596e-05
5.70844e-05
5.60219e-05
5.47826e-05
5.33789e-05
5.18255e-05
5.01388e-05
4.8337e-05
4.64395e-05
4.44673e-05
4.2442e-05
4.0386e-05
3.83221e-05
3.62726e-05
3.42592e-05
3.23021e-05
3.04197e-05
2.86277e-05
2.6939e-05
2.53632e-05
2.39066e-05
2.25724e-05
2.1361e-05
2.02705e-05
1.92974e-05
1.84372e-05
1.76848e-05
1.70351e-05
1.64828e-05
1.60233e-05
1.56517e-05
1.53631e-05
1.51522e-05
1.50133e-05
1.49404e-05
1.49275e-05
1.49692e-05
1.50613e-05
1.52013e-05
1.53886e-05
1.56242e-05
1.59098e-05
1.62468e-05
1.66332e-05
1.70611e-05
1.75122e-05
1.79524e-05
1.83227e-05
1.85224e-05
1.83655e-05
1.74415e-05
1.44658e-05
2.17398e-06
1.4823e-06
1.04899e-05
1.68081e-05
2.18567e-05
2.6471e-05
3.08453e-05
3.49657e-05
3.87579e-05
4.21485e-05
4.50928e-05
4.75838e-05
4.96493e-05
5.13422e-05
5.27281e-05
5.38747e-05
5.48424e-05
5.56787e-05
5.64148e-05
5.70651e-05
5.76295e-05
5.80959e-05
5.84455e-05
5.86563e-05
5.87075e-05
5.85814e-05
5.82654e-05
5.77525e-05
5.70406e-05
5.61325e-05
5.50353e-05
5.37594e-05
5.23181e-05
5.07274e-05
4.90053e-05
4.71713e-05
4.52469e-05
4.32542e-05
4.12164e-05
3.91572e-05
3.71001e-05
3.5068e-05
3.30827e-05
3.11639e-05
2.93293e-05
2.75933e-05
2.59673e-05
2.44591e-05
2.30733e-05
2.18114e-05
2.06724e-05
1.96534e-05
1.87499e-05
1.7957e-05
1.72693e-05
1.66816e-05
1.6189e-05
1.57864e-05
1.54689e-05
1.52315e-05
1.50686e-05
1.49745e-05
1.49435e-05
1.49704e-05
1.50512e-05
1.51834e-05
1.53664e-05
1.56013e-05
1.58898e-05
1.62332e-05
1.66293e-05
1.70701e-05
1.75367e-05
1.79941e-05
1.83829e-05
1.86023e-05
1.84678e-05
1.7574e-05
1.46516e-05
2.23183e-06
1.12893e-06
8.43441e-06
1.3475e-05
1.74441e-05
2.11924e-05
2.5003e-05
2.89372e-05
3.29476e-05
3.69294e-05
4.0742e-05
4.42434e-05
4.73189e-05
4.99011e-05
5.19762e-05
5.35795e-05
5.47812e-05
5.5669e-05
5.63304e-05
5.68395e-05
5.72484e-05
5.75845e-05
5.78524e-05
5.80395e-05
5.81228e-05
5.80757e-05
5.78732e-05
5.74955e-05
5.69294e-05
5.61688e-05
5.52137e-05
5.407e-05
5.2748e-05
5.12617e-05
4.96282e-05
4.78668e-05
4.59988e-05
4.4047e-05
4.20351e-05
3.99877e-05
3.79292e-05
3.58838e-05
3.38747e-05
3.19233e-05
3.00487e-05
2.82673e-05
2.65921e-05
2.50327e-05
2.3595e-05
2.2282e-05
2.10934e-05
2.0027e-05
1.90788e-05
1.8244e-05
1.75172e-05
1.68929e-05
1.63659e-05
1.59313e-05
1.5584e-05
1.53191e-05
1.51312e-05
1.50148e-05
1.49647e-05
1.49757e-05
1.5044e-05
1.51673e-05
1.53449e-05
1.5578e-05
1.58683e-05
1.62169e-05
1.66218e-05
1.70745e-05
1.75556e-05
1.80297e-05
1.84367e-05
1.8676e-05
1.85649e-05
1.77031e-05
1.48371e-05
2.29165e-06
8.75644e-07
6.8587e-06
1.09735e-05
1.41095e-05
1.69987e-05
1.99506e-05
2.31328e-05
2.66227e-05
3.04031e-05
3.4385e-05
3.84373e-05
4.2387e-05
4.60499e-05
4.92641e-05
5.19203e-05
5.39776e-05
5.54644e-05
5.64629e-05
5.70851e-05
5.7447e-05
5.76475e-05
5.77548e-05
5.78035e-05
5.77979e-05
5.7721e-05
5.75445e-05
5.72379e-05
5.67746e-05
5.61351e-05
5.53087e-05
5.42925e-05
5.3091e-05
5.1714e-05
5.01761e-05
4.84954e-05
4.66926e-05
4.47904e-05
4.2813e-05
4.07854e-05
3.87332e-05
3.66816e-05
3.4655e-05
3.26763e-05
3.07665e-05
2.89434e-05
2.7222e-05
2.56135e-05
2.41254e-05
2.2762e-05
2.15242e-05
2.04105e-05
1.94175e-05
1.85404e-05
1.77739e-05
1.71126e-05
1.6551e-05
1.60839e-05
1.57064e-05
1.54134e-05
1.52e-05
1.50608e-05
1.49907e-05
1.4985e-05
1.504e-05
1.51534e-05
1.53248e-05
1.55551e-05
1.58463e-05
1.61993e-05
1.66121e-05
1.70759e-05
1.75709e-05
1.80611e-05
1.8486e-05
1.87451e-05
1.86571e-05
1.7827e-05
1.50177e-05
2.35215e-06
7.02085e-07
5.69369e-06
9.1322e-06
1.16817e-05
1.39668e-05
1.62527e-05
1.86923e-05
2.14004e-05
2.44706e-05
2.79523e-05
3.18029e-05
3.59136e-05
4.01267e-05
4.42362e-05
4.802e-05
5.12818e-05
5.38898e-05
5.5799e-05
5.70523e-05
5.77598e-05
5.80658e-05
5.81133e-05
5.80172e-05
5.78504e-05
5.76425e-05
5.7389e-05
5.70641e-05
5.66343e-05
5.60674e-05
5.53384e-05
5.44323e-05
5.33433e-05
5.20744e-05
5.06353e-05
4.9041e-05
4.73106e-05
4.54661e-05
4.35315e-05
4.15322e-05
3.94944e-05
3.74442e-05
3.54073e-05
3.34079e-05
3.14685e-05
2.96088e-05
2.78453e-05
2.6191e-05
2.46552e-05
2.32434e-05
2.19578e-05
2.07977e-05
1.97604e-05
1.88415e-05
1.80357e-05
1.73375e-05
1.67413e-05
1.62419e-05
1.58342e-05
1.55132e-05
1.5274e-05
1.51116e-05
1.50212e-05
1.49982e-05
1.50393e-05
1.51422e-05
1.53065e-05
1.55334e-05
1.58247e-05
1.61815e-05
1.66016e-05
1.70759e-05
1.75842e-05
1.809e-05
1.85322e-05
1.88104e-05
1.87445e-05
1.79445e-05
1.51905e-05
2.4124e-06
5.88223e-07
4.87052e-06
7.81786e-06
9.95443e-06
1.18247e-05
1.36558e-05
1.55748e-05
1.76782e-05
2.0056e-05
2.27972e-05
2.59832e-05
2.96417e-05
3.36955e-05
3.80165e-05
4.24071e-05
4.66192e-05
5.0396e-05
5.35237e-05
5.58763e-05
5.74382e-05
5.82957e-05
5.86046e-05
5.85436e-05
5.82724e-05
5.79043e-05
5.7498e-05
5.70648e-05
5.65843e-05
5.60215e-05
5.53402e-05
5.4511e-05
5.35151e-05
5.23447e-05
5.10016e-05
4.94957e-05
4.78425e-05
4.60622e-05
4.41778e-05
4.22147e-05
4.01993e-05
3.81584e-05
3.61187e-05
3.41058e-05
3.21434e-05
3.02528e-05
2.84522e-05
2.67565e-05
2.51764e-05
2.3719e-05
2.23878e-05
2.11832e-05
2.01031e-05
1.91433e-05
1.82991e-05
1.75647e-05
1.69345e-05
1.64032e-05
1.59656e-05
1.56168e-05
1.5352e-05
1.51664e-05
1.50555e-05
1.50151e-05
1.50418e-05
1.51337e-05
1.52905e-05
1.55134e-05
1.58043e-05
1.61644e-05
1.65912e-05
1.70756e-05
1.75969e-05
1.81178e-05
1.85765e-05
1.88725e-05
1.8827e-05
1.80548e-05
1.53534e-05
2.47159e-06
5.13514e-07
4.29638e-06
6.88798e-06
8.73196e-06
1.0315e-05
1.18363e-05
1.3403e-05
1.50936e-05
1.69802e-05
1.91388e-05
2.16528e-05
2.46084e-05
2.80796e-05
3.20405e-05
3.63821e-05
4.09287e-05
4.54285e-05
4.95887e-05
5.31333e-05
5.58643e-05
5.7705e-05
5.87091e-05
5.90323e-05
5.88801e-05
5.84512e-05
5.78967e-05
5.73027e-05
5.66961e-05
5.60619e-05
5.53647e-05
5.45649e-05
5.363e-05
5.25386e-05
5.12818e-05
4.98609e-05
4.82861e-05
4.65741e-05
4.47459e-05
4.28258e-05
4.08402e-05
3.88163e-05
3.67813e-05
3.47619e-05
3.27832e-05
3.08679e-05
2.90358e-05
2.73034e-05
2.56832e-05
2.41838e-05
2.28099e-05
2.1563e-05
2.04417e-05
1.94428e-05
1.85612e-05
1.77916e-05
1.71284e-05
1.6566e-05
1.60992e-05
1.57231e-05
1.54331e-05
1.52246e-05
1.50932e-05
1.50351e-05
1.50472e-05
1.51278e-05
1.52768e-05
1.54953e-05
1.57855e-05
1.61486e-05
1.6582e-05
1.70762e-05
1.761e-05
1.81453e-05
1.86197e-05
1.8932e-05
1.89048e-05
1.81577e-05
1.55054e-05
2.52927e-06
4.62244e-07
3.88964e-06
6.22145e-06
7.85395e-06
9.2328e-06
1.05369e-05
1.18596e-05
1.32662e-05
1.48151e-05
1.65671e-05
1.85905e-05
2.09643e-05
2.37763e-05
2.71103e-05
3.09872e-05
3.53178e-05
3.99472e-05
4.46281e-05
4.90477e-05
5.28863e-05
5.58895e-05
5.79293e-05
5.90284e-05
5.934e-05
5.90902e-05
5.85101e-05
5.7782e-05
5.70149e-05
5.62473e-05
5.54681e-05
5.46409e-05
5.37239e-05
5.26824e-05
5.14939e-05
5.01489e-05
4.86496e-05
4.70069e-05
4.52386e-05
4.3367e-05
4.14175e-05
3.94172e-05
3.73938e-05
3.53747e-05
3.33861e-05
3.14521e-05
2.95941e-05
2.783e-05
2.61738e-05
2.46359e-05
2.32223e-05
2.19355e-05
2.07753e-05
1.97386e-05
1.88212e-05
1.80176e-05
1.73223e-05
1.67296e-05
1.62343e-05
1.58316e-05
1.55168e-05
1.52855e-05
1.51338e-05
1.50581e-05
1.50555e-05
1.51246e-05
1.52653e-05
1.54793e-05
1.57686e-05
1.61344e-05
1.65741e-05
1.7078e-05
1.7624e-05
1.81731e-05
1.86621e-05
1.89893e-05
1.89784e-05
1.82536e-05
1.56468e-05
2.58562e-06
4.25177e-07
3.58987e-06
5.72688e-06
7.20227e-06
8.43122e-06
9.57756e-06
1.07243e-05
1.19277e-05
1.32359e-05
1.46983e-05
1.63701e-05
1.8316e-05
2.06127e-05
2.33477e-05
2.66095e-05
3.04436e-05
3.47747e-05
3.94619e-05
4.42612e-05
4.88462e-05
5.28662e-05
5.6027e-05
5.81642e-05
5.92805e-05
5.95307e-05
5.91601e-05
5.84264e-05
5.75354e-05
5.66109e-05
5.5698e-05
5.47862e-05
5.38372e-05
5.28077e-05
5.16619e-05
5.03773e-05
4.89455e-05
4.73697e-05
4.56624e-05
4.38427e-05
4.19342e-05
3.99633e-05
3.79576e-05
3.59449e-05
3.39525e-05
3.20055e-05
3.01267e-05
2.83355e-05
2.66476e-05
2.50747e-05
2.36244e-05
2.23003e-05
2.1103e-05
2.00304e-05
1.90785e-05
1.82421e-05
1.75156e-05
1.68935e-05
1.63705e-05
1.59417e-05
1.56025e-05
1.5349e-05
1.51771e-05
1.50837e-05
1.50663e-05
1.51237e-05
1.52561e-05
1.54653e-05
1.57535e-05
1.61219e-05
1.65679e-05
1.70812e-05
1.76391e-05
1.82015e-05
1.87041e-05
1.90447e-05
1.90479e-05
1.83427e-05
1.57779e-05
2.64061e-06
3.99151e-07
3.37388e-06
5.36445e-06
6.72172e-06
7.83858e-06
8.86742e-06
9.88364e-06
1.09365e-05
1.20671e-05
1.3316e-05
1.47283e-05
1.63571e-05
1.8266e-05
2.05314e-05
2.32413e-05
2.64869e-05
3.03223e-05
3.46804e-05
3.94243e-05
4.43067e-05
4.89868e-05
5.3091e-05
5.62989e-05
5.84267e-05
5.94725e-05
5.96018e-05
5.90807e-05
5.8188e-05
5.71443e-05
5.60794e-05
5.50384e-05
5.40079e-05
5.29471e-05
5.18114e-05
5.05655e-05
4.91882e-05
4.7673e-05
4.6025e-05
4.42587e-05
4.23945e-05
4.04575e-05
3.84746e-05
3.64739e-05
3.44831e-05
3.25283e-05
3.06337e-05
2.88199e-05
2.71043e-05
2.55e-05
2.40158e-05
2.26569e-05
2.14247e-05
2.03178e-05
1.93327e-05
1.84646e-05
1.7708e-05
1.70574e-05
1.65074e-05
1.60531e-05
1.56902e-05
1.54146e-05
1.52228e-05
1.51118e-05
1.50796e-05
1.51251e-05
1.52491e-05
1.54533e-05
1.57402e-05
1.61112e-05
1.65634e-05
1.7086e-05
1.76555e-05
1.82305e-05
1.87456e-05
1.90982e-05
1.91135e-05
1.84254e-05
1.58991e-05
2.69427e-06
3.83167e-07
3.23348e-06
5.117e-06
6.38608e-06
7.4189e-06
8.35937e-06
9.27711e-06
1.02162e-05
1.12122e-05
1.22991e-05
1.35142e-05
1.49012e-05
1.6513e-05
1.8414e-05
2.0682e-05
2.3407e-05
2.6682e-05
3.05577e-05
3.49699e-05
3.97765e-05
4.47177e-05
4.94353e-05
5.35365e-05
5.66874e-05
5.87025e-05
5.95918e-05
5.95426e-05
5.88436e-05
5.77892e-05
5.66051e-05
5.54181e-05
5.42666e-05
5.31315e-05
5.1969e-05
5.07342e-05
4.93935e-05
4.79284e-05
4.6335e-05
4.46211e-05
4.2803e-05
4.09032e-05
3.89474e-05
3.69634e-05
3.49791e-05
3.30214e-05
3.11156e-05
2.92836e-05
2.7544e-05
2.59116e-05
2.43965e-05
2.30051e-05
2.174e-05
2.06004e-05
1.95836e-05
1.86851e-05
1.78994e-05
1.7221e-05
1.66447e-05
1.61656e-05
1.57793e-05
1.54821e-05
1.52705e-05
1.51421e-05
1.5095e-05
1.51287e-05
1.5244e-05
1.54432e-05
1.57288e-05
1.61023e-05
1.65606e-05
1.70924e-05
1.76731e-05
1.82602e-05
1.87868e-05
1.91496e-05
1.91751e-05
1.85017e-05
1.60109e-05
2.74668e-06
3.76049e-07
3.15918e-06
4.9686e-06
6.17384e-06
7.14482e-06
8.01949e-06
8.86318e-06
9.71607e-06
1.06093e-05
1.15718e-05
1.26349e-05
1.38344e-05
1.52142e-05
1.68284e-05
1.87435e-05
2.10405e-05
2.38125e-05
2.71541e-05
3.11015e-05
3.559e-05
4.0463e-05
4.54394e-05
5.01392e-05
5.41547e-05
5.71507e-05
5.89574e-05
5.96136e-05
5.9338e-05
5.84426e-05
5.72302e-05
5.59216e-05
5.46315e-05
5.33864e-05
5.21597e-05
5.09048e-05
4.9578e-05
4.81485e-05
4.66016e-05
4.49367e-05
4.31646e-05
4.1304e-05
3.93786e-05
3.74153e-05
3.54418e-05
3.34857e-05
3.15728e-05
2.97266e-05
2.79668e-05
2.63094e-05
2.47663e-05
2.33449e-05
2.20488e-05
2.08783e-05
1.98311e-05
1.89032e-05
1.80893e-05
1.73841e-05
1.67823e-05
1.62789e-05
1.58698e-05
1.55513e-05
1.53203e-05
1.51745e-05
1.51126e-05
1.51343e-05
1.52409e-05
1.54349e-05
1.57192e-05
1.60952e-05
1.65596e-05
1.71003e-05
1.76919e-05
1.82903e-05
1.88274e-05
1.91991e-05
1.9233e-05
1.8572e-05
1.6114e-05
2.79792e-06
3.77051e-07
3.14282e-06
4.90506e-06
6.06606e-06
6.99288e-06
7.81956e-06
8.60838e-06
9.39656e-06
1.02119e-05
1.10794e-05
1.20254e-05
1.30795e-05
1.42778e-05
1.56653e-05
1.72981e-05
1.92462e-05
2.15945e-05
2.44404e-05
2.78797e-05
3.19233e-05
3.65038e-05
4.144e-05
4.64215e-05
5.10438e-05
5.48898e-05
5.76371e-05
5.91493e-05
5.95089e-05
5.89734e-05
5.78751e-05
5.65161e-05
5.51017e-05
5.37273e-05
5.24039e-05
5.10967e-05
4.97577e-05
4.83454e-05
4.68336e-05
4.52119e-05
4.34836e-05
4.16627e-05
3.977e-05
3.78305e-05
3.58717e-05
3.39211e-05
3.20053e-05
3.01486e-05
2.8372e-05
2.6693e-05
2.51245e-05
2.36754e-05
2.23504e-05
2.11507e-05
2.00746e-05
1.91184e-05
1.82775e-05
1.75463e-05
1.69196e-05
1.63927e-05
1.59613e-05
1.56219e-05
1.53717e-05
1.52088e-05
1.51321e-05
1.51419e-05
1.52397e-05
1.54285e-05
1.57114e-05
1.60898e-05
1.65602e-05
1.71098e-05
1.77118e-05
1.83209e-05
1.88673e-05
1.92466e-05
1.9287e-05
1.86365e-05
1.62086e-05
2.84799e-06
3.85909e-07
3.17564e-06
4.91168e-06
6.04503e-06
6.94297e-06
7.73696e-06
8.48718e-06
9.22868e-06
9.98678e-06
1.07835e-05
1.1641e-05
1.25842e-05
1.36428e-05
1.48537e-05
1.62637e-05
1.79319e-05
1.99321e-05
2.2354e-05
2.52986e-05
2.88579e-05
3.30217e-05
3.7704e-05
4.26899e-05
4.76339e-05
5.21075e-05
5.56936e-05
5.80986e-05
5.9238e-05
5.9251e-05
5.84364e-05
5.71402e-05
5.56525e-05
5.41531e-05
5.2712e-05
5.13232e-05
4.99447e-05
4.85285e-05
4.70373e-05
4.545e-05
4.37616e-05
4.19794e-05
4.01204e-05
3.82074e-05
3.62665e-05
3.43251e-05
3.24101e-05
3.05467e-05
2.87569e-05
2.70595e-05
2.54686e-05
2.39944e-05
2.26427e-05
2.14156e-05
2.03122e-05
1.93293e-05
1.84623e-05
1.77062e-05
1.70557e-05
1.6506e-05
1.60529e-05
1.56932e-05
1.54243e-05
1.52445e-05
1.51532e-05
1.51512e-05
1.52403e-05
1.5424e-05
1.57055e-05
1.60864e-05
1.65627e-05
1.7121e-05
1.77331e-05
1.8352e-05
1.89066e-05
1.92919e-05
1.93371e-05
1.86948e-05
1.62945e-05
2.89642e-06
4.02921e-07
3.25418e-06
4.9814e-06
6.10142e-06
6.9839e-06
7.7587e-06
8.48454e-06
9.19498e-06
9.9135e-06
1.06598e-05
1.14531e-05
1.23145e-05
1.32684e-05
1.43455e-05
1.55842e-05
1.70338e-05
1.87573e-05
2.08335e-05
2.33571e-05
2.6433e-05
3.013e-05
3.44274e-05
3.92064e-05
4.42095e-05
4.90522e-05
5.32869e-05
5.65108e-05
5.84794e-05
5.91777e-05
5.88106e-05
5.77146e-05
5.62379e-05
5.46455e-05
5.30828e-05
5.15909e-05
5.01472e-05
4.87046e-05
4.72173e-05
4.56537e-05
4.39988e-05
4.22529e-05
4.04277e-05
3.85427e-05
3.66224e-05
3.46936e-05
3.27831e-05
3.09167e-05
2.91175e-05
2.7405e-05
2.5795e-05
2.42985e-05
2.29226e-05
2.16703e-05
2.05414e-05
1.95334e-05
1.8642e-05
1.78622e-05
1.71889e-05
1.66174e-05
1.61436e-05
1.57644e-05
1.54773e-05
1.52811e-05
1.51757e-05
1.5162e-05
1.52427e-05
1.54214e-05
1.57017e-05
1.60852e-05
1.65675e-05
1.71343e-05
1.7756e-05
1.83839e-05
1.89455e-05
1.93351e-05
1.93832e-05
1.8747e-05
1.63714e-05
2.9428e-06
4.2757e-07
3.37011e-06
5.10317e-06
6.22262e-06
7.10174e-06
7.86951e-06
8.58378e-06
9.27707e-06
9.97157e-06
1.06853e-05
1.14352e-05
1.22393e-05
1.31182e-05
1.40973e-05
1.52084e-05
1.64922e-05
1.80015e-05
1.98035e-05
2.19824e-05
2.4638e-05
2.78743e-05
3.17295e-05
3.61653e-05
4.10187e-05
4.59828e-05
5.06348e-05
5.45201e-05
5.72706e-05
5.87137e-05
5.89196e-05
5.81604e-05
5.67999e-05
5.51723e-05
5.35039e-05
5.1899e-05
5.03695e-05
4.88787e-05
4.73774e-05
4.58247e-05
4.41955e-05
4.24818e-05
4.06892e-05
3.88331e-05
3.69357e-05
3.50224e-05
3.31199e-05
3.12542e-05
2.94491e-05
2.77253e-05
2.60994e-05
2.45838e-05
2.31865e-05
2.19116e-05
2.07596e-05
1.97284e-05
1.88142e-05
1.80123e-05
1.73177e-05
1.67256e-05
1.62322e-05
1.58343e-05
1.55299e-05
1.5318e-05
1.51989e-05
1.51741e-05
1.52468e-05
1.54208e-05
1.57002e-05
1.60865e-05
1.6575e-05
1.71501e-05
1.77809e-05
1.84169e-05
1.89841e-05
1.93763e-05
1.94253e-05
1.8793e-05
1.6439e-05
2.98667e-06
4.59294e-07
3.51442e-06
5.26576e-06
6.39602e-06
7.28271e-06
8.05454e-06
8.76889e-06
9.45763e-06
1.01421e-05
1.0839e-05
1.15636e-05
1.23316e-05
1.31608e-05
1.40723e-05
1.50927e-05
1.62558e-05
1.76053e-05
1.91981e-05
2.11064e-05
2.34195e-05
2.6241e-05
2.96587e-05
3.36885e-05
3.82525e-05
4.31339e-05
4.79728e-05
5.23166e-05
5.57237e-05
5.78874e-05
5.87301e-05
5.8417e-05
5.72799e-05
5.56915e-05
5.39521e-05
5.22381e-05
5.06097e-05
4.90521e-05
4.75194e-05
4.59639e-05
4.43512e-05
4.26644e-05
4.0902e-05
3.90747e-05
3.72016e-05
3.53064e-05
3.34151e-05
3.15537e-05
2.97466e-05
2.80152e-05
2.63771e-05
2.48458e-05
2.34304e-05
2.21357e-05
2.09631e-05
1.99111e-05
1.89763e-05
1.81541e-05
1.74398e-05
1.68286e-05
1.63169e-05
1.59016e-05
1.5581e-05
1.53543e-05
1.52224e-05
1.51872e-05
1.52523e-05
1.54223e-05
1.57014e-05
1.60909e-05
1.65856e-05
1.71691e-05
1.78085e-05
1.84515e-05
1.90228e-05
1.94157e-05
1.94634e-05
1.88324e-05
1.64968e-05
3.02743e-06
4.97923e-07
3.68076e-06
5.46131e-06
6.61283e-06
7.51728e-06
8.30355e-06
9.02886e-06
9.72473e-06
1.04119e-05
1.11061e-05
1.18216e-05
1.25722e-05
1.33734e-05
1.42434e-05
1.52044e-05
1.62847e-05
1.75211e-05
1.89611e-05
2.06659e-05
2.27132e-05
2.51967e-05
2.82189e-05
3.18383e-05
3.60415e-05
4.06967e-05
4.55247e-05
5.01156e-05
5.40046e-05
5.67919e-05
5.82638e-05
5.84571e-05
5.76311e-05
5.61589e-05
5.43957e-05
5.25895e-05
5.08585e-05
4.92208e-05
4.76412e-05
4.60696e-05
4.44636e-05
4.27973e-05
4.10619e-05
3.92626e-05
3.74146e-05
3.55396e-05
3.36625e-05
3.18089e-05
3.00036e-05
2.82685e-05
2.66222e-05
2.5079e-05
2.3649e-05
2.23379e-05
2.11477e-05
2.00777e-05
1.91247e-05
1.82846e-05
1.75526e-05
1.69243e-05
1.63959e-05
1.59648e-05
1.56292e-05
1.5389e-05
1.52453e-05
1.52007e-05
1.52593e-05
1.5426e-05
1.57054e-05
1.60988e-05
1.66002e-05
1.71919e-05
1.78393e-05
1.84883e-05
1.9062e-05
1.94534e-05
1.94974e-05
1.8865e-05
1.65439e-05
3.0642e-06
5.43492e-07
3.8666e-06
5.68716e-06
6.87001e-06
7.80203e-06
8.61264e-06
9.35921e-06
1.00732e-05
1.07748e-05
1.14795e-05
1.22003e-05
1.29501e-05
1.37424e-05
1.45932e-05
1.55215e-05
1.65515e-05
1.77141e-05
1.90493e-05
2.06092e-05
2.246e-05
2.46841e-05
2.7378e-05
3.06255e-05
3.44558e-05
3.88053e-05
4.34762e-05
4.81245e-05
5.23039e-05
5.55671e-05
5.75941e-05
5.82947e-05
5.78299e-05
5.65375e-05
5.48006e-05
5.29282e-05
5.11e-05
4.93753e-05
4.77372e-05
4.61379e-05
4.45291e-05
4.28767e-05
4.11644e-05
3.93914e-05
3.75688e-05
3.57156e-05
3.38553e-05
3.2013e-05
3.02132e-05
2.84786e-05
2.68282e-05
2.52773e-05
2.38367e-05
2.25129e-05
2.13088e-05
2.0224e-05
1.92558e-05
1.84004e-05
1.76532e-05
1.701e-05
1.64671e-05
1.60219e-05
1.56732e-05
1.5421e-05
1.52669e-05
1.52142e-05
1.52675e-05
1.54321e-05
1.57129e-05
1.61109e-05
1.66196e-05
1.72195e-05
1.78743e-05
1.85279e-05
1.91021e-05
1.94898e-05
1.95273e-05
1.88904e-05
1.65795e-05
3.09606e-06
5.95865e-07
4.07348e-06
5.94603e-06
7.16984e-06
8.13826e-06
8.98201e-06
9.75897e-06
1.05007e-05
1.12275e-05
1.19541e-05
1.26933e-05
1.34568e-05
1.4257e-05
1.51081e-05
1.60268e-05
1.70337e-05
1.81556e-05
1.94264e-05
2.08903e-05
2.2604e-05
2.46385e-05
2.7079e-05
3.00161e-05
3.35029e-05
3.75232e-05
4.19483e-05
4.65067e-05
5.07979e-05
5.43677e-05
5.68283e-05
5.79815e-05
5.78824e-05
5.68073e-05
5.51384e-05
5.32291e-05
5.13161e-05
4.95041e-05
4.78005e-05
4.61645e-05
4.45447e-05
4.29e-05
4.12066e-05
3.94578e-05
3.76602e-05
3.58299e-05
3.39887e-05
3.21606e-05
3.03702e-05
2.86401e-05
2.699e-05
2.54357e-05
2.39888e-05
2.26565e-05
2.14423e-05
2.03462e-05
1.93662e-05
1.84986e-05
1.7739e-05
1.70834e-05
1.65283e-05
1.60713e-05
1.57114e-05
1.54491e-05
1.52865e-05
1.52273e-05
1.52767e-05
1.54407e-05
1.57242e-05
1.61279e-05
1.66444e-05
1.72527e-05
1.79143e-05
1.8571e-05
1.91436e-05
1.95249e-05
1.95532e-05
1.89085e-05
1.6603e-05
3.12244e-06
6.53807e-07
4.29866e-06
6.23652e-06
7.51123e-06
8.52472e-06
9.40992e-06
1.02257e-05
1.10041e-05
1.17654e-05
1.25245e-05
1.32935e-05
1.40838e-05
1.49068e-05
1.57753e-05
1.67042e-05
1.77116e-05
1.88206e-05
2.00607e-05
2.14696e-05
2.3096e-05
2.5001e-05
2.72588e-05
2.99527e-05
3.31478e-05
3.68555e-05
4.09977e-05
4.53685e-05
4.96257e-05
5.33375e-05
5.60859e-05
5.75941e-05
5.78202e-05
5.69663e-05
5.53902e-05
5.3469e-05
5.14868e-05
4.95926e-05
4.78216e-05
4.61436e-05
4.45067e-05
4.28643e-05
4.11859e-05
3.9459e-05
3.76857e-05
3.5879e-05
3.40586e-05
3.22476e-05
3.047e-05
2.87484e-05
2.71029e-05
2.55497e-05
2.4101e-05
2.27645e-05
2.15443e-05
2.0441e-05
1.94528e-05
1.85763e-05
1.78074e-05
1.71423e-05
1.65776e-05
1.61113e-05
1.57425e-05
1.54722e-05
1.53031e-05
1.52394e-05
1.52869e-05
1.5452e-05
1.57397e-05
1.61505e-05
1.66757e-05
1.72923e-05
1.79599e-05
1.86182e-05
1.91868e-05
1.9559e-05
1.95749e-05
1.89189e-05
1.6614e-05
3.14259e-06
7.16478e-07
4.54392e-06
6.56166e-06
7.89772e-06
8.96507e-06
9.89987e-06
1.07625e-05
1.15858e-05
1.23905e-05
1.31915e-05
1.4001e-05
1.48299e-05
1.5689e-05
1.659e-05
1.75465e-05
1.85747e-05
1.96948e-05
2.09326e-05
2.23208e-05
2.39013e-05
2.57267e-05
2.78613e-05
3.03782e-05
3.33417e-05
3.67757e-05
4.0635e-05
4.4765e-05
4.88808e-05
5.25904e-05
5.54763e-05
5.72154e-05
5.76893e-05
5.70263e-05
5.55451e-05
5.36274e-05
5.15912e-05
4.9624e-05
4.77885e-05
4.60671e-05
4.44099e-05
4.2766e-05
4.10995e-05
3.93923e-05
3.76423e-05
3.58595e-05
3.40614e-05
3.22699e-05
3.05083e-05
2.87991e-05
2.71625e-05
2.5615e-05
2.4169e-05
2.28331e-05
2.16114e-05
2.0505e-05
1.95125e-05
1.86308e-05
1.7856e-05
1.71845e-05
1.66132e-05
1.61402e-05
1.57652e-05
1.54894e-05
1.53161e-05
1.52501e-05
1.52979e-05
1.54662e-05
1.57602e-05
1.61796e-05
1.67142e-05
1.73394e-05
1.8012e-05
1.867e-05
1.92321e-05
1.95921e-05
1.95923e-05
1.89213e-05
1.66114e-05
3.15569e-06
7.83656e-07
4.8176e-06
6.93191e-06
8.34037e-06
9.47048e-06
1.0463e-05
1.13804e-05
1.22567e-05
1.31134e-05
1.39655e-05
1.48254e-05
1.57037e-05
1.66108e-05
1.75577e-05
1.8557e-05
1.96233e-05
2.07748e-05
2.20341e-05
2.343e-05
2.49989e-05
2.67863e-05
2.88473e-05
3.12453e-05
3.40351e-05
3.72424e-05
4.08394e-05
4.47075e-05
4.86093e-05
5.21983e-05
5.50797e-05
5.69146e-05
5.75342e-05
5.70041e-05
5.55978e-05
5.3687e-05
5.16089e-05
4.95803e-05
4.76877e-05
4.59261e-05
4.42483e-05
4.26013e-05
4.09445e-05
3.92553e-05
3.75278e-05
3.57689e-05
3.39942e-05
3.22244e-05
3.04819e-05
2.87889e-05
2.71654e-05
2.56281e-05
2.41897e-05
2.28589e-05
2.16403e-05
2.05353e-05
1.95426e-05
1.86596e-05
1.78826e-05
1.72081e-05
1.66333e-05
1.61567e-05
1.57782e-05
1.54997e-05
1.53248e-05
1.52593e-05
1.531e-05
1.5484e-05
1.57863e-05
1.6216e-05
1.67612e-05
1.73948e-05
1.80713e-05
1.87269e-05
1.92795e-05
1.9624e-05
1.9605e-05
1.89153e-05
1.65947e-05
3.16088e-06
8.57369e-07
5.13863e-06
7.36565e-06
8.85782e-06
1.00606e-05
1.11201e-05
1.21013e-05
1.30395e-05
1.39568e-05
1.48689e-05
1.57882e-05
1.67254e-05
1.76906e-05
1.86946e-05
1.9749e-05
2.08676e-05
2.20667e-05
2.33669e-05
2.47935e-05
2.63785e-05
2.81614e-05
3.01894e-05
3.2517e-05
3.51833e-05
3.82083e-05
4.15702e-05
4.51748e-05
4.88139e-05
5.21835e-05
5.49289e-05
5.67238e-05
5.7377e-05
5.69078e-05
5.55431e-05
5.36333e-05
5.15233e-05
4.9447e-05
4.75086e-05
4.57135e-05
4.40182e-05
4.23685e-05
4.07205e-05
3.90481e-05
3.73423e-05
3.56074e-05
3.38572e-05
3.2111e-05
3.03905e-05
2.87172e-05
2.71109e-05
2.55883e-05
2.41621e-05
2.28411e-05
2.16302e-05
2.05309e-05
1.95423e-05
1.86619e-05
1.78862e-05
1.72121e-05
1.66371e-05
1.61599e-05
1.5781e-05
1.55027e-05
1.53293e-05
1.52671e-05
1.53235e-05
1.55061e-05
1.58193e-05
1.62611e-05
1.68176e-05
1.74591e-05
1.81377e-05
1.8788e-05
1.93279e-05
1.96534e-05
1.96119e-05
1.89e-05
1.65635e-05
3.15882e-06
9.41518e-07
5.51416e-06
7.87558e-06
9.47136e-06
1.07634e-05
1.19037e-05
1.29601e-05
1.39699e-05
1.49562e-05
1.59356e-05
1.69209e-05
1.79233e-05
1.89532e-05
2.0021e-05
2.11383e-05
2.23181e-05
2.35755e-05
2.49294e-05
2.64026e-05
2.80232e-05
2.98255e-05
3.18497e-05
3.414e-05
3.67231e-05
3.95996e-05
4.27456e-05
4.60741e-05
4.94089e-05
5.24868e-05
5.49928e-05
5.66289e-05
5.7207e-05
5.67232e-05
5.53682e-05
5.34617e-05
5.1335e-05
4.92282e-05
4.72571e-05
4.54367e-05
4.37276e-05
4.2076e-05
4.04364e-05
3.878e-05
3.70953e-05
3.53846e-05
3.36599e-05
3.19391e-05
3.0243e-05
2.85926e-05
2.70072e-05
2.55031e-05
2.40932e-05
2.27861e-05
2.15868e-05
2.04971e-05
1.95162e-05
1.86418e-05
1.78707e-05
1.72001e-05
1.66278e-05
1.6153e-05
1.57765e-05
1.55012e-05
1.53321e-05
1.5276e-05
1.53409e-05
1.55343e-05
1.58602e-05
1.6315e-05
1.68826e-05
1.75307e-05
1.8209e-05
1.88508e-05
1.93743e-05
1.96773e-05
1.96097e-05
1.88719e-05
1.65127e-05
3.15423e-06
1.07672e-06
6.06533e-06
8.56728e-06
1.02603e-05
1.16334e-05
1.28467e-05
1.39716e-05
1.50472e-05
1.60978e-05
1.71408e-05
1.81895e-05
1.92553e-05
2.03487e-05
2.14801e-05
2.26607e-05
2.39028e-05
2.52206e-05
2.6631e-05
2.81544e-05
2.98156e-05
3.16434e-05
3.36728e-05
3.59224e-05
3.84078e-05
4.11325e-05
4.40667e-05
4.71266e-05
5.01563e-05
5.29266e-05
5.5161e-05
5.6594e-05
5.70507e-05
5.65155e-05
5.51505e-05
5.3244e-05
5.11082e-05
4.8981e-05
4.69852e-05
4.51439e-05
4.34227e-05
4.1769e-05
4.01367e-05
3.8495e-05
3.68303e-05
3.51429e-05
3.34433e-05
3.1748e-05
3.00769e-05
2.84501e-05
2.68866e-05
2.54024e-05
2.40101e-05
2.27183e-05
2.15321e-05
2.04533e-05
1.94814e-05
1.86142e-05
1.78489e-05
1.71829e-05
1.66144e-05
1.61429e-05
1.57698e-05
1.54987e-05
1.53349e-05
1.52861e-05
1.53604e-05
1.55655e-05
1.59045e-05
1.63725e-05
1.69508e-05
1.76045e-05
1.82811e-05
1.8913e-05
1.94191e-05
1.96991e-05
1.96058e-05
1.88427e-05
1.64605e-05
3.14718e-06
1.21551e-06
6.61192e-06
9.26286e-06
1.10527e-05
1.25034e-05
1.37854e-05
1.49747e-05
1.61126e-05
1.72247e-05
1.83292e-05
1.94398e-05
2.05682e-05
2.17248e-05
2.29198e-05
2.41639e-05
2.54685e-05
2.68465e-05
2.83129e-05
2.98856e-05