/*--------------------------------*- C++ -*----------------------------------*\
  =========                 |
  \\      /  F ield         | OpenFOAM: The Open Source CFD Toolbox
   \\    /   O peration     | Website:  https://openfoam.org
    \\  /    A nd           | Version:  7
     \\/     M anipulation  |
\*---------------------------------------------------------------------------*/
FoamFile
{
    version     2.0;
    format      ascii;
    class       volScalarField;
    location    "20000";
    object      nut;
}
// * * * * * * * * * * * * * * * * * * * * * * * * * * * * * * * * * * * * * //

dimensions      [0 2 -1 0 0 0 0];

internalField   nonuniform List<scalar> 
10981
(
5.58404e-07
1.66456e-05
3.43089e-05
5.47386e-05
7.93871e-05
0.000108946
0.000143574
0.000183084
0.000227102
0.000275165
0.000326774
0.000381418
0.000438578
0.000497725
0.000558312
0.000619772
0.000681516
0.000742927
0.000803369
0.000862187
0.00091872
0.000972308
0.00102231
0.0010681
0.00110913
0.00114487
0.00117492
0.00119894
0.00121674
0.00122822
0.00123343
0.00123255
0.00122589
0.00121387
0.001197
0.00117588
0.00115113
0.00112338
0.00109322
0.00106118
0.00102768
0.000993021
0.000957362
0.000920733
0.000883036
0.00084409
0.000803669
0.000761575
0.000717701
0.0006721
0.000625036
0.000576995
0.000528669
0.00048089
0.00043454
0.000390444
0.000349271
0.00031147
0.00027724
0.000246552
0.000219192
0.000194831
0.000173092
0.0001536
0.000136023
0.00012009
0.000105598
9.23985e-05
8.03869e-05
6.94804e-05
5.95991e-05
5.06498e-05
4.25149e-05
3.50484e-05
2.80763e-05
2.13933e-05
1.47383e-05
7.66569e-06
1.61774e-07
5.0104e-07
1.61523e-05
3.38684e-05
5.39935e-05
7.75207e-05
0.000105067
0.000136924
0.000173123
0.000213503
0.000257786
0.000305616
0.000356595
0.000410292
0.000466251
0.000523991
0.000583002
0.000642742
0.000702639
0.000762088
0.000820458
0.000877096
0.000931337
0.000982519
0.00102999
0.00107314
0.00111141
0.00114429
0.0011714
0.00119243
0.00120722
0.00121574
0.00121807
0.00121446
0.00120527
0.00119096
0.00117211
0.0011493
0.00112317
0.00109432
0.0010633
0.00103057
0.000996463
0.000961187
0.000924808
0.000887266
0.000848406
0.000808026
0.000765938
0.000722041
0.000676385
0.000629226
0.000581041
0.000532514
0.000484477
0.000437812
0.000393355
0.000351788
0.000313576
0.000278937
0.000247856
0.000220133
0.00019545
0.000173432
0.00015371
0.000135953
0.00011989
0.000105314
9.20755e-05
8.00637e-05
6.91886e-05
5.93613e-05
5.04777e-05
4.24096e-05
3.50022e-05
2.80748e-05
2.14191e-05
1.47732e-05
7.6925e-06
1.6301e-07
4.02564e-07
1.39925e-05
2.98539e-05
4.80234e-05
6.91812e-05
9.37751e-05
0.000122104
0.000154321
0.000190443
0.000230376
0.000273931
0.000320848
0.000370804
0.000423427
0.000478298
0.000534956
0.000592897
0.000651574
0.000710403
0.000768759
0.000825987
0.00088141
0.000934338
0.000984084
0.00102998
0.0010714
0.00110778
0.00113864
0.00116359
0.00118237
0.00119485
0.00120104
0.00120111
0.00119533
0.00118414
0.00116804
0.00114762
0.0011235
0.00109629
0.00106657
0.00103484
0.00100148
0.000966739
0.00093074
0.000893464
0.000854794
0.000814551
0.00077256
0.00072872
0.000683069
0.000635847
0.000587515
0.000538743
0.000490357
0.000443246
0.00039826
0.000356109
0.000317285
0.000282036
0.000250373
0.000222116
0.000196958
0.000174533
0.000154472
0.000136443
0.000120172
0.000105448
9.21145e-05
8.00536e-05
6.91667e-05
5.93543e-05
5.05013e-05
4.24686e-05
3.50919e-05
2.81836e-05
2.15311e-05
1.48705e-05
7.75657e-06
1.6596e-07
2.83581e-07
1.16193e-05
2.53736e-05
4.04326e-05
5.75924e-05
7.73947e-05
0.000100259
0.000126512
0.000156391
0.000190041
0.000227513
0.000268758
0.000313629
0.000361886
0.000413196
0.000467148
0.000523257
0.000580973
0.000639691
0.000698755
0.000757468
0.000815103
0.00087091
0.000924137
0.00097404
0.00101991
0.00106108
0.00109698
0.00112711
0.00115111
0.00116875
0.00117992
0.00118471
0.00118333
0.00117612
0.00116355
0.0011462
0.00112466
0.00109958
0.00107157
0.00104116
0.00100879
0.000974797
0.000939346
0.000902483
0.000864135
0.000824155
0.000782381
0.000738705
0.000693148
0.000645918
0.000597445
0.000548377
0.000499529
0.000451797
0.000406058
0.000363059
0.000323341
0.000287198
0.00025468
0.000225637
0.000199783
0.000176758
0.000156195
0.000137756
0.00012116
0.000106187
9.2672e-05
8.04862e-05
6.95208e-05
5.96646e-05
5.07906e-05
4.27481e-05
3.53627e-05
2.84389e-05
2.17584e-05
1.5054e-05
7.87858e-06
1.71614e-07
1.70341e-07
9.68344e-06
2.29404e-05
3.6192e-05
5.01519e-05
6.54485e-05
8.26176e-05
0.000102145
0.00012448
0.000150033
0.000179165
0.000212165
0.000249223
0.000290413
0.000335666
0.000384763
0.000437337
0.000492882
0.000550771
0.000610286
0.000670631
0.000730965
0.000790414
0.000848097
0.00090314
0.000954701
0.00100199
0.00104428
0.00108097
0.00111155
0.00113565
0.00115308
0.00116379
0.0011679
0.0011657
0.00115759
0.00114412
0.00112588
0.00110353
0.00107771
0.00104903
0.00101799
0.000984999
0.000950306
0.000914028
0.000876153
0.000836574
0.000795146
0.000751756
0.000706398
0.000659239
0.000610666
0.000561289
0.000511905
0.000463419
0.000416735
0.000372653
0.000331777
0.000294464
0.000260822
0.000230742
0.000203962
0.000180138
0.0001589
0.000139904
0.000122859
0.000107531
9.37423e-05
8.13527e-05
7.02401e-05
6.02807e-05
5.13345e-05
4.32384e-05
3.58069e-05
2.88352e-05
2.20982e-05
1.53248e-05
8.06428e-06
1.80355e-07
1.07408e-07
8.66462e-06
2.29648e-05
3.64123e-05
4.93756e-05
6.25267e-05
7.63962e-05
9.14464e-05
0.000108127
0.000126901
0.00014825
0.000172665
0.000200626
0.00023257
0.000268848
0.000309675
0.000355089
0.000404917
0.000458758
0.000515996
0.000575828
0.000637312
0.000699411
0.000761043
0.000821122
0.000878592
0.000932453
0.000981792
0.0010258
0.00106382
0.0010953
0.00111992
0.00113748
0.00114801
0.00115168
0.00114885
0.00114
0.00112574
0.00110671
0.00108361
0.00105709
0.00102774
0.000996039
0.000962331
0.000926819
0.00088956
0.000850503
0.000809528
0.000766522
0.000721454
0.000674448
0.000625837
0.000576188
0.000526269
0.000476986
0.000429274
0.000383988
0.000341804
0.000303153
0.000268211
0.000236923
0.000209061
0.000184296
0.000162259
0.000142602
0.000125018
0.00010926
9.51354e-05
8.24889e-05
7.11844e-05
6.10841e-05
5.20341e-05
4.3858e-05
3.63583e-05
2.93201e-05
2.25109e-05
1.56552e-05
8.29757e-06
1.91536e-07
7.44497e-08
7.66524e-06
2.29725e-05
3.78167e-05
5.1353e-05
6.4186e-05
7.69314e-05
9.00647e-05
0.000103966
0.000118989
0.000135508
0.000153953
0.000174814
0.000198635
0.000225992
0.000257444
0.00029348
0.000334445
0.000380466
0.000431392
0.000486761
0.000545815
0.000607535
0.00067072
0.000734064
0.000796238
0.000855949
0.000911995
0.000963299
0.00100894
0.00104818
0.00108047
0.00110546
0.00112301
0.00113321
0.0011363
0.00113272
0.00112302
0.00110788
0.001088
0.00106409
0.0010368
0.00100671
0.00097424
0.000939695
0.000903212
0.000864801
0.000824384
0.000781858
0.000737171
0.000690408
0.000641848
0.000592005
0.000541614
0.000491572
0.000442838
0.000396323
0.000352775
0.000312708
0.000276374
0.000243779
0.000214736
0.000188937
0.000166021
0.00014563
0.000127448
0.000111211
9.67102e-05
8.37743e-05
7.22518e-05
6.19897e-05
5.28192e-05
4.45498e-05
3.6971e-05
2.98574e-05
2.29686e-05
1.6024e-05
8.5618e-06
2.04507e-07
5.47968e-08
6.61206e-06
2.18163e-05
3.81059e-05
5.31823e-05
6.68752e-05
7.96775e-05
9.21982e-05
0.00010494
0.000118281
0.000132511
0.0001479
0.000164758
0.000183474
0.000204538
0.000228542
0.000256143
0.000288011
0.000324745
0.000366776
0.000414256
0.000466982
0.000524351
0.000585379
0.000648777
0.000713055
0.000776644
0.000838003
0.000895699
0.000948472
0.000995271
0.00103527
0.00106791
0.00109284
0.00110999
0.00111948
0.00112168
0.00111707
0.00110632
0.00109013
0.00106926
0.00104442
0.00101626
0.000985308
0.000951951
0.000916417
0.00087879
0.000839042
0.000797091
0.000752879
0.000706453
0.000658043
0.000608108
0.000557341
0.000506621
0.000456927
0.000409214
0.000364306
0.000322801
0.000285032
0.000251073
0.000220787
0.000193893
0.00017004
0.000148867
0.000130044
0.000113294
9.83898e-05
8.51438e-05
7.33878e-05
6.29525e-05
5.36531e-05
4.52841e-05
3.76213e-05
3.04282e-05
2.34562e-05
1.64183e-05
8.84545e-06
2.18833e-07
4.26312e-08
5.73185e-06
2.01324e-05
3.68902e-05
5.33855e-05
6.87298e-05
8.27002e-05
9.55614e-05
0.000107909
0.000120349
0.000133332
0.000147166
0.000162066
0.000178226
0.000195892
0.000215427
0.00023734
0.000262282
0.000291007
0.000324285
0.000362792
0.000406969
0.000456891
0.000512169
0.000571929
0.000634865
0.000699359
0.000763638
0.000825926
0.000884568
0.000938117
0.000985394
0.00102551
0.00105786
0.00108216
0.00109837
0.00110671
0.00110762
0.00110168
0.00108961
0.00107218
0.00105016
0.00102427
0.00099511
0.000963172
0.000928773
0.000892076
0.000853113
0.000811836
0.000768189
0.000722194
0.000674035
0.000624116
0.000573083
0.000521792
0.000471225
0.000422383
0.000376154
0.000333224
0.000294009
0.00025866
0.000227093
0.000199062
0.000174231
0.000152238
0.000132744
0.000115456
0.00010013
8.65606e-05
7.45621e-05
6.39476e-05
5.45156e-05
4.60444e-05
3.82959e-05
3.10216e-05
2.3964e-05
1.68294e-05
9.14104e-06
2.34226e-07
3.53365e-08
5.09629e-06
1.86272e-05
3.5236e-05
5.2397e-05
6.90473e-05
8.46306e-05
9.89113e-05
0.000111959
0.000124193
0.000136325
0.000148967
0.000162513
0.000177188
0.000193117
0.000210415
0.000229287
0.000250103
0.000273432
0.00030003
0.000330764
0.000366491
0.00040789
0.000455289
0.000508515
0.000566824
0.000628931
0.00069313
0.000757482
0.000820006
0.00087885
0.000932408
0.000979394
0.00101887
0.00105024
0.00107325
0.00108795
0.00109465
0.00109387
0.00108628
0.00107265
0.00105379
0.00103047
0.00100338
0.000973097
0.000940022
0.000904406
0.000866347
0.000825841
0.000782848
0.000737373
0.000689562
0.000639766
0.000588582
0.000536833
0.000485501
0.000435617
0.000388134
0.000343817
0.000303172
0.000266427
0.000233561
0.000204367
0.00017853
0.000155691
0.000135504
0.00011766
0.0001019
8.7999e-05
7.57535e-05
6.49579e-05
5.53927e-05
4.68196e-05
3.89853e-05
3.16295e-05
2.44848e-05
1.7251e-05
9.44344e-06
2.50477e-07
3.14396e-08
4.7078e-06
1.75786e-05
3.38811e-05
5.12686e-05
6.86853e-05
8.54913e-05
0.000101266
0.000115783
0.000129039
0.000141292
0.000153159
0.000165459
0.000178725
0.000193252
0.000209147
0.00022643
0.000245157
0.00026554
0.000288027
0.000313322
0.000342334
0.000376046
0.000415326
0.000460708
0.0005122
0.000569168
0.00063034
0.000693937
0.000757876
0.000820011
0.000878332
0.000931115
0.000977007
0.00101506
0.00104471
0.00106578
0.00107841
0.00108299
0.00108014
0.0010706
0.00105519
0.00103473
0.00100997
0.000981553
0.000949987
0.000915601
0.000878566
0.000838929
0.000796673
0.000751801
0.000704426
0.000654853
0.000603628
0.000551539
0.000499556
0.000448734
0.000400079
0.000354435
0.000312395
0.000274269
0.000240102
0.000209735
0.000182877
0.000159176
0.000138281
0.000119872
0.000103671
8.94366e-05
7.69438e-05
6.59686e-05
5.62725e-05
4.75997e-05
3.96815e-05
3.22447e-05
2.50125e-05
1.76775e-05
9.74849e-06
2.67386e-07
2.95773e-08
4.49569e-06
1.69327e-05
3.29658e-05
5.04187e-05
6.82861e-05
8.59255e-05
0.000102866
0.000118769
0.00013344
0.000146855
0.00015921
0.000170945
0.000182956
0.000195981
0.000210402
0.000226347
0.000243778
0.00026263
0.000282966
0.000305103
0.000329675
0.0003576
0.000389954
0.00042775
0.000471679
0.000521875
0.000577765
0.000638057
0.000700884
0.000764035
0.000825228
0.000882345
0.000933596
0.000977615
0.00101348
0.00104072
0.00105923
0.00106927
0.00107132
0.00106608
0.00105436
0.00103699
0.00101478
0.000988449
0.000958571
0.000925563
0.000889669
0.000850996
0.000809559
0.000765367
0.00071851
0.000669252
0.000618092
0.000565775
0.000513257
0.000461604
0.000411871
0.000364974
0.000321588
0.00028211
0.000246656
0.000215116
0.00018723
0.00016266
0.00014105
0.000122071
0.000105428
9.08592e-05
7.81219e-05
6.69709e-05
5.7148e-05
4.83789e-05
4.03792e-05
3.28627e-05
2.55429e-05
1.81055e-05
1.00533e-05
2.84791e-07
2.85695e-08
4.36632e-06
1.64906e-05
3.22936e-05
4.97473e-05
6.79013e-05
8.61272e-05
0.000103938
0.000120952
0.00013689
0.000151602
0.000165083
0.000177503
0.000189266
0.000201156
0.000214077
0.000228497
0.00024458
0.000262258
0.000281374
0.000301866
0.000323936
0.000348153
0.00037544
0.000406946
0.000443796
0.000486793
0.000536137
0.000591251
0.000650777
0.000712733
0.000774785
0.000834548
0.000889844
0.000938876
0.000980319
0.00101334
0.00103755
0.001053
0.00106002
0.00105923
0.00105137
0.0010373
0.00101785
0.000993786
0.000965767
0.00093428
0.000899648
0.000862036
0.000821501
0.000778063
0.000731802
0.000682946
0.000631947
0.000579511
0.000526569
0.000474194
0.000423479
0.000375404
0.000330729
0.000289934
0.000253208
0.000220501
0.000191585
0.000166139
0.00014381
0.000124256
0.000107169
9.22683e-05
7.92892e-05
6.79661e-05
5.80201e-05
4.91581e-05
4.10791e-05
3.34837e-05
2.60757e-05
1.85344e-05
1.03569e-05
3.02652e-07
2.80409e-08
4.28145e-06
1.61467e-05
3.17199e-05
4.9118e-05
6.7452e-05
8.61176e-05
0.000104624
0.000122559
0.000139592
0.000155493
0.000170153
0.000183606
0.000196041
0.00020785
0.000219739
0.000232713
0.000247283
0.00026363
0.000281655
0.000301126
0.000321883
0.000344042
0.000368128
0.000395087
0.000426136
0.00046249
0.000505014
0.000553908
0.000608526
0.000667386
0.000728367
0.000789019
0.00084689
0.000899794
0.000945985
0.000984234
0.00101383
0.00103453
0.00104651
0.00105022
0.00104637
0.00103575
0.00101923
0.000997609
0.000971606
0.000941781
0.000908527
0.000872073
0.00083252
0.000789911
0.000744319
0.000695946
0.0006452
0.000592746
0.000539486
0.000486493
0.000434889
0.000385715
0.000339809
0.000297733
0.000259757
0.000225889
0.000195943
0.000169617
0.000146563
0.000126431
0.000108899
9.36668e-05
8.04485e-05
6.89567e-05
5.88911e-05
4.99388e-05
4.1782e-05
3.41081e-05
2.66109e-05
1.89639e-05
1.06591e-05
3.20957e-07
2.79384e-08
4.23375e-06
1.58779e-05
3.12174e-05
4.85128e-05
6.69438e-05
8.59408e-05
0.000105022
0.000123759
0.000141778
0.000158782
0.000174579
0.000189103
0.000202433
0.000214802
0.000226617
0.000238577
0.000251732
0.000266597
0.000283337
0.000301804
0.000321694
0.000342768
0.000365091
0.000389182
0.000416031
0.000446936
0.000483175
0.000525623
0.000574409
0.000628747
0.000686981
0.000746834
0.000805755
0.000861267
0.000911236
0.000954022
0.000988543
0.00101425
0.00103106
0.00103928
0.00103949
0.00103245
0.001019
0.000999974
0.000976131
0.000948098
0.000916336
0.000881134
0.000842645
0.000800937
0.000756085
0.00070827
0.000657862
0.000605483
0.000552006
0.000498494
0.000446095
0.000395899
0.000348821
0.000305506
0.000266302
0.000231282
0.000200306
0.000173097
0.000149313
0.0001286
0.000110621
9.50581e-05
8.16029e-05
6.99452e-05
5.97628e-05
5.07225e-05
4.24891e-05
3.47364e-05
2.7149e-05
1.93942e-05
1.09602e-05
3.3971e-07
2.83124e-08
4.22998e-06
1.57106e-05
3.08449e-05
4.80278e-05
6.65075e-05
8.57568e-05
0.000105317
0.00012476
0.000143686
0.000161743
0.00017866
0.000194275
0.000208564
0.000221659
0.00023385
0.000245592
0.000257655
0.000271082
0.000286362
0.000303604
0.000322587
0.000342927
0.000364328
0.000386838
0.000411013
0.000437923
0.000468949
0.000505406
0.000548116
0.000597063
0.00065125
0.000708808
0.0007673
0.000824107
0.000876781
0.000923295
0.000962172
0.000992518
0.00101397
0.00102663
0.00103092
0.00102753
0.00101726
0.00100095
0.000979392
0.000953272
0.000923107
0.000889251
0.000851905
0.000811168
0.000767125
0.000719938
0.000669947
0.000617733
0.000564133
0.000510199
0.000457094
0.000405954
0.000357764
0.000313251
0.000272843
0.000236683
0.000204679
0.000176583
0.000152065
0.000130768
0.00011234
9.64461e-05
8.27554e-05
7.09343e-05
6.06375e-05
5.15108e-05
4.32014e-05
3.53694e-05
2.76902e-05
1.98256e-05
1.12602e-05
3.58928e-07
2.91873e-08
4.27438e-06
1.56715e-05
3.06693e-05
4.77763e-05
6.63011e-05
8.57596e-05
0.000105726
0.000125788
0.000145541
0.000164604
0.000182638
0.000199388
0.000214721
0.000228656
0.000241384
0.000253265
0.000264833
0.000277012
0.000290777
0.000306559
0.00032438
0.000343917
0.000364703
0.000386404
0.000409091
0.000433405
0.000460528
0.000491921
0.000528894
0.000572146
0.000621434
0.000675491
0.000732214
0.000789025
0.000843282
0.000892625
0.000935194
0.000969725
0.000995541
0.00101249
0.00102082
0.0010211
0.00101409
0.0010006
0.000981441
0.000957342
0.000928876
0.000896454
0.000860327
0.00082063
0.00077746
0.000730971
0.000681472
0.000629504
0.000575872
0.000521609
0.000467885
0.000415879
0.000366637
0.000320969
0.000279384
0.000242096
0.000209066
0.000180081
0.000154824
0.000132938
0.00011406
9.78346e-05
8.39095e-05
7.19267e-05
6.15172e-05
5.23052e-05
4.392e-05
3.6008e-05
2.82352e-05
2.02586e-05
1.15598e-05
3.78634e-07
3.06704e-08
4.37992e-06
1.5808e-05
3.07801e-05
4.78912e-05
6.64981e-05
8.61563e-05
0.000106476
0.000127074
0.000147563
0.000167554
0.000186673
0.000204594
0.000221077
0.000236013
0.000249466
0.000261692
0.000273131
0.000284426
0.000296737
0.00031089
0.000327237
0.000345677
0.000365765
0.000386951
0.000408891
0.000431729
0.000456237
0.000483731
0.000515736
0.000553498
0.000597507
0.000647215
0.000701044
0.000756657
0.000811373
0.000862593
0.000908109
0.000946283
0.000976099
0.000997119
0.00100939
0.00101333
0.00100961
0.000999005
0.000982335
0.000960349
0.000933671
0.000902763
0.000867927
0.000829335
0.0007871
0.000741372
0.000692433
0.000640791
0.000587212
0.000532708
0.000478452
0.000425657
0.000375428
0.00032865
0.000285917
0.000247516
0.000213466
0.00018359
0.000157591
0.000135113
0.000115782
9.92246e-05
8.50661e-05
7.29233e-05
6.24028e-05
5.31064e-05
4.46453e-05
3.66521e-05
2.87841e-05
2.06933e-05
1.18589e-05
3.98836e-07
3.3144e-08
4.57518e-06
1.61953e-05
3.13011e-05
4.85449e-05
6.73187e-05
8.72105e-05
0.000107865
0.000128935
0.000150063
0.000170876
0.000190996
0.000210059
0.000227747
0.000243836
0.000258246
0.000271092
0.000282702
0.000293617
0.000304618
0.000317057
0.000331638
0.000348586
0.000367642
0.000388222
0.000409711
0.000431799
0.000454756
0.000479533
0.000507588
0.000540468
0.000579269
0.000624179
0.000674275
0.000727645
0.000781746
0.000833862
0.000881508
0.000922695
0.000956058
0.000980852
0.000996886
0.0010044
0.00100395
0.000996259
0.000982128
0.000962322
0.000937501
0.000908174
0.000874689
0.000837256
0.000796009
0.000751096
0.00070278
0.000651533
0.000598087
0.000543427
0.000488726
0.00043522
0.000384072
0.000336239
0.000292395
0.000252904
0.000217845
0.000187085
0.000160345
0.000137275
0.000117493
0.000100606
8.62177e-05
7.39182e-05
6.32894e-05
5.39105e-05
4.5374e-05
3.72992e-05
2.93345e-05
2.11279e-05
1.21565e-05
4.19421e-07
3.6886e-08
4.87833e-06
1.68892e-05
3.23367e-05
4.98951e-05
6.89753e-05
8.9189e-05
0.00011021
0.000131727
0.000153417
0.000174939
0.000195936
0.000216039
0.000234891
0.000252188
0.000267723
0.000281452
0.000293545
0.000304416
0.000314715
0.000325563
0.000338216
0.000353289
0.000370849
0.000390459
0.000411406
0.000433046
0.000455165
0.000478226
0.000503391
0.000532243
0.000566276
0.000606327
0.000652181
0.00070249
0.000755016
0.000807076
0.000856002
0.000899503
0.000935875
0.000964057
0.000983593
0.000994524
0.000997265
0.000992466
0.000980887
0.000963294
0.000940374
0.000912674
0.000880586
0.000844354
0.000804136
0.000760082
0.00071244
0.00066165
0.000608409
0.000553674
0.000498613
0.00044448
0.000392487
0.000343661
0.000298753
0.000258205
0.00022216
0.000190528
0.000163057
0.000139403
0.000119176
0.000101966
8.73536e-05
7.49032e-05
6.41706e-05
5.47121e-05
4.61017e-05
3.79454e-05
2.98835e-05
2.15601e-05
1.2451e-05
4.40216e-07
4.21184e-08
5.29455e-06
1.78995e-05
3.39001e-05
5.19619e-05
7.15035e-05
9.21532e-05
0.000113609
0.000135589
0.000157807
0.000179959
0.000201719
0.000222739
0.00024266
0.000261137
0.000277879
0.000292706
0.000305617
0.000316852
0.000326921
0.000336636
0.000347472
0.000360455
0.000376077
0.000394215
0.000414249
0.000435369
0.000456968
0.000479008
0.000502209
0.000527955
0.000557897
0.000593361
0.000634796
0.000681496
0.000731669
0.000782807
0.000832176
0.000877258
0.000916039
0.000947147
0.000969849
0.000983967
0.000989756
0.000987765
0.000978703
0.00096332
0.000942313
0.000916263
0.000885596
0.000850592
0.000811431
0.000768268
0.000721339
0.000671056
0.000618082
0.000563349
0.000508009
0.000453334
0.000400576
0.000350827
0.000304914
0.000263353
0.000226355
0.000193876
0.000165692
0.000141467
0.000120808
0.000103287
8.8461e-05
7.58684e-05
6.50387e-05
5.55052e-05
4.68233e-05
3.85864e-05
3.04274e-05
2.19869e-05
1.274e-05
4.6099e-07
4.91527e-08
5.82647e-06
1.92146e-05
3.59515e-05
5.46769e-05
7.48147e-05
9.60078e-05
0.000117976
0.000140462
0.000163213
0.00018596
0.00020841
0.000230248
0.000251133
0.000270713
0.000288657
0.00030469
0.000318669
0.000330653
0.000340967
0.000350242
0.000359623
0.000370577
0.000383999
0.000400188
0.000418798
0.000439044
0.000460084
0.000481444
0.000503351
0.000526825
0.000553447
0.000584823
0.000621957
0.000664783
0.000712042
0.000761532
0.000810575
0.000856507
0.000897062
0.000930574
0.000956034
0.000973035
0.000981659
0.000982334
0.000975699
0.000962475
0.000943359
0.00091895
0.000889705
0.000855934
0.000817838
0.000775581
0.000729389
0.00067965
0.000626996
0.00057233
0.00051679
0.000461659
0.000408222
0.000357629
0.00031078
0.000268265
0.000230359
0.00019707
0.000168202
0.000143433
0.000122361
0.000104548
8.95236e-05
7.68014e-05
6.5884e-05
5.62818e-05
4.75323e-05
3.92168e-05
3.09614e-05
2.24044e-05
1.30208e-05
4.81434e-07
5.84545e-08
6.47597e-06
2.08121e-05
3.8431e-05
5.79441e-05
7.87842e-05
0.000100611
0.000123165
0.000146216
0.000169534
0.000192881
0.000215999
0.000238601
0.000260374
0.000280979
0.000300072
0.000317332
0.000332516
0.00034553
0.000356511
0.0003659
0.000374494
0.000383819
0.000395085
0.000409036
0.000425734
0.000444613
0.000464781
0.000485462
0.000506431
0.000528265
0.000552294
0.000580198
0.00061337
0.000652316
0.000696341
0.000743638
0.00079169
0.000837787
0.000879471
0.000914823
0.000942572
0.000962084
0.000973256
0.000976386
0.000972029
0.000960861
0.000943566
0.000920753
0.000892899
0.000860339
0.000823295
0.000781938
0.000736487
0.000687311
0.000635014
0.00058047
0.000524804
0.000469301
0.000415275
0.000363928
0.000316227
0.000272831
0.000234081
0.000200034
0.000170527
0.00014525
0.000123799
0.000105719
9.05196e-05
7.76854e-05
6.66935e-05
5.70314e-05
4.82199e-05
3.9829e-05
3.14792e-05
2.28075e-05
1.32892e-05
5.01117e-07
7.03841e-08
7.2307e-06
2.26437e-05
4.12545e-05
6.16498e-05
8.32773e-05
0.000105818
0.000129033
0.000152716
0.000176661
0.000200655
0.000224463
0.000247827
0.000270458
0.000292036
0.000312222
0.000330678
0.000347105
0.000361301
0.000373246
0.000383182
0.000391676
0.000399985
0.000409455
0.000421175
0.000435652
0.000452682
0.000471518
0.00049126
0.00051134
0.000531898
0.000553912
0.000578956
0.000608633
0.000643902
0.000684599
0.000729357
0.000775902
0.000821561
0.000863759
0.000900371
0.000929898
0.000951487
0.000964855
0.000970162
0.00096787
0.000958598
0.000943006
0.000921701
0.000895172
0.000863772
0.000827739
0.000787252
0.000742525
0.000693913
0.000641992
0.000587612
0.000531883
0.000476089
0.000421568
0.000369567
0.000321111
0.000276926
0.000237414
0.00020268
0.000172595
0.000146862
0.000125077
0.000106769
9.14237e-05
7.85013e-05
6.74521e-05
5.77419e-05
4.88758e-05
4.04142e-05
3.19732e-05
2.31897e-05
1.35408e-05
5.19507e-07
8.48022e-08
8.05811e-06
2.46242e-05
4.42843e-05
6.56117e-05
8.80787e-05
0.000111393
0.00013534
0.000159734
0.000184389
0.00020911
0.00023368
0.000257858
0.000281372
0.000303918
0.00032517
0.000344787
0.000362444
0.000377881
0.000390966
0.000401787
0.000410728
0.000418606
0.000426821
0.000436604
0.000448818
0.000463675
0.000480723
0.000499124
0.000518123
0.000537504
0.000557869
0.000580568
0.000607246
0.000639172
0.000676637
0.000718704
0.000763389
0.000808125
0.000850289
0.000887608
0.00091839
0.000941588
0.000956752
0.000963905
0.000963411
0.000955826
0.000941774
0.00092185
0.000896545
0.000866225
0.000831136
0.000791466
0.000747426
0.000699356
0.000647814
0.000593627
0.000537887
0.000481879
0.000426959
0.000374409
0.000325307
0.000280438
0.00024026
0.000204928
0.000174342
0.00014822
0.000126157
0.000107667
9.2215e-05
7.92331e-05
6.81473e-05
5.84031e-05
4.94913e-05
4.09646e-05
3.24367e-05
2.35455e-05
1.3771e-05
5.36103e-07
1.0139e-07
8.91386e-06
2.66235e-05
4.73046e-05
6.95462e-05
9.28604e-05
0.000116987
0.000141736
0.000166937
0.000192419
0.000217992
0.000243449
0.000268552
0.000293036
0.000316606
0.000338942
0.000359707
0.00037857
0.000395238
0.000409513
0.000421368
0.000431031
0.000439062
0.000446623
0.000454951
0.000465123
0.000477718
0.000492651
0.0005093
0.000526894
0.000544992
0.000563867
0.000584589
0.000608725
0.000637707
0.00067217
0.000711562
0.000754197
0.000797659
0.000839332
0.000876849
0.000908375
0.000932703
0.00094923
0.000957858
0.00095885
0.000952697
0.000939979
0.00092127
0.000897056
0.000867704
0.000833467
0.000794537
0.000751123
0.000703555
0.000652374
0.00059839
0.000542682
0.000486531
0.000431305
0.000378316
0.000328686
0.000283252
0.000242523
0.000206697
0.000175703
0.000149273
0.000127001
0.000108387
9.28721e-05
7.98647e-05
6.87665e-05
5.90043e-05
5.00571e-05
4.14721e-05
3.28624e-05
2.38686e-05
1.39752e-05
5.50369e-07
1.1954e-07
9.74883e-06
2.85098e-05
5.01218e-05
7.3229e-05
9.7395e-05
0.000122391
0.000148046
0.000174196
0.000200668
0.000227269
0.000253784
0.000279967
0.000305549
0.000330233
0.0003537
0.000375616
0.000395651
0.0004135
0.000428933
0.000441852
0.000452371
0.000460889
0.000468277
0.000475657
0.000484166
0.000494629
0.000507311
0.000521893
0.000537737
0.000554326
0.000571701
0.000590671
0.000612643
0.000639092
0.000670875
0.000707743
0.000748283
0.000790245
0.000831065
0.000868335
0.000900122
0.000925099
0.000942541
0.00095224
0.00095437
0.000949354
0.000937727
0.000920031
0.00089674
0.000868214
0.00083471
0.000796417
0.000753545
0.000706416
0.000655561
0.000601776
0.000546129
0.000489897
0.000434457
0.000381143
0.000331114
0.000285248
0.000244098
0.000207899
0.000176607
0.000149966
0.000127567
0.000108896
9.33722e-05
8.03788e-05
6.92958e-05
5.95338e-05
5.05628e-05
4.19272e-05
3.32419e-05
2.41522e-05
1.41482e-05
5.61726e-07
1.38161e-07
1.05052e-05
3.01569e-05
5.26025e-05
7.6572e-05
0.000101672
0.000127688
0.000154445
0.000181767
0.000209462
0.000237317
0.000265094
0.000292531
0.000319341
0.00034522
0.000369845
0.000392886
0.000414017
0.000432939
0.00044941
0.000463301
0.000474657
0.000483769
0.000491262
0.000498093
0.000505341
0.000513943
0.000524428
0.000536784
0.000550598
0.000565421
0.00058119
0.000598511
0.000618618
0.000642929
0.0006724
0.000706991
0.000745505
0.000785856
0.000825553
0.000862196
0.000893801
0.000918962
0.000936867
0.00094722
0.000950117
0.000945917
0.000935107
0.000918195
0.000895631
0.000867766
0.000834848
0.000797068
0.000754631
0.000707858
0.000657274
0.000603667
0.000548096
0.000491837
0.000436272
0.000382752
0.000332459
0.000286307
0.000244883
0.00020845
0.000176987
0.000150247
0.000127816
0.000109166
9.36931e-05
8.0758e-05
6.97209e-05
5.99793e-05
5.09975e-05
4.23201e-05
3.35665e-05
2.43888e-05
1.42846e-05
5.69584e-07
1.55976e-07
1.11431e-05
3.1545e-05
5.48643e-05
7.98834e-05
0.000106197
0.000133557
0.000161752
0.000190567
0.000219772
0.00024912
0.000278345
0.000307159
0.000335262
0.000362336
0.00038806
0.000412109
0.000434168
0.000453951
0.000471227
0.000485859
0.000497862
0.000507464
0.000515105
0.000521594
0.000527896
0.000534941
0.000543437
0.000553607
0.000565267
0.000578123
0.000592131
0.000607804
0.000626261
0.000648803
0.000676334
0.000708936
0.000745566
0.000784272
0.000822658
0.00085836
0.000889392
0.000914312
0.000932253
0.000942854
0.000946151
0.000942444
0.00093217
0.0009158
0.000893757
0.000866371
0.000833881
0.000796472
0.00075435
0.000707834
0.00065745
0.000603983
0.000548491
0.00049225
0.000436643
0.000383033
0.000332618
0.000286333
0.00024479
0.000208272
0.000176764
0.000150044
0.00012769
0.000109151
9.38001e-05
8.09756e-05
7.00206e-05
6.03237e-05
5.13472e-05
4.26399e-05
3.38283e-05
2.45733e-05
1.4381e-05
5.7366e-07
1.71928e-07
1.16527e-05
3.29686e-05
5.7647e-05
8.43058e-05
0.000112415
0.000141642
0.000171707
0.000202347
0.000233294
0.000264268
0.000294981
0.000325132
0.000354412
0.000382506
0.000409099
0.00043388
0.000456555
0.000476859
0.00049458
0.000509592
0.000521899
0.000531686
0.000539257
0.000545376
0.000550908
0.000556729
0.000563553
0.000571746
0.000581329
0.000592185
0.00060437
0.000618384
0.00063524
0.000656139
0.000681951
0.000712771
0.000747637
0.000784701
0.000821655
0.000856198
0.000886368
0.000910722
0.000928364
0.000938892
0.000942292
0.000938813
0.000928845
0.000912818
0.000891121
0.000864061
0.000831862
0.000794702
0.000752786
0.000706437
0.000656184
0.000602819
0.0005474
0.000491204
0.000435621
0.000382015
0.000331597
0.000285316
0.0002438
0.000207345
0.000175952
0.000149386
0.000127216
0.000108873
9.37092e-05
8.1041e-05
7.01986e-05
6.05655e-05
5.16066e-05
4.28784e-05
3.40171e-05
2.46948e-05
1.44261e-05
5.74648e-07
1.96216e-07
1.2642e-05
3.56641e-05
6.24105e-05
9.12575e-05
0.000121553
0.000152892
0.000184951
0.000217433
0.000250049
0.000282507
0.000314512
0.000345762
0.000375954
0.000404784
0.000431953
0.000457172
0.000480171
0.000500711
0.000518601
0.000533731
0.000546102
0.000555836
0.000563286
0.000569056
0.000573903
0.00057863
0.000583935
0.000590276
0.000597842
0.000606695
0.000617012
0.000629325
0.00064458
0.00066389
0.000688068
0.000717194
0.000750359
0.000785801
0.000821299
0.000854616
0.000883828
0.0009075
0.00092472
0.000935053
0.000938441
0.000935086
0.000925335
0.000909574
0.000888159
0.000861373
0.000829422
0.000792477
0.000750742
0.000704543
0.000654414
0.000601152
0.00054582
0.000489695
0.000434168
0.00038061
0.000330239
0.000284015
0.000242579
0.000206241
0.000175008
0.000148638
0.000126685
0.000108562
9.35991e-05
8.10938e-05
7.0365e-05
6.07939e-05
5.18498e-05
4.30979e-05
3.41854e-05
2.47957e-05
1.4453e-05
5.73623e-07
2.21508e-07
1.36235e-05
3.83108e-05
6.70037e-05
9.78963e-05
0.000130242
0.000163575
0.000197529
0.000231776
0.000266003
0.000299903
0.000333173
0.000365508
0.000396612
0.000426188
0.000453955
0.00047964
0.000502992
0.000523795
0.000541879
0.000557135
0.000569595
0.000579339
0.000586688
0.00059215
0.000596386
0.000600126
0.000604051
0.000608685
0.000614354
0.000621278
0.000629756
0.000640367