/*--------------------------------*- C++ -*----------------------------------*\
  =========                 |
  \\      /  F ield         | OpenFOAM: The Open Source CFD Toolbox
   \\    /   O peration     | Website:  https://openfoam.org
    \\  /    A nd           | Version:  7
     \\/     M anipulation  |
\*---------------------------------------------------------------------------*/
FoamFile
{
    version     2.0;
    format      ascii;
    class       volScalarField;
    location    "20000";
    object      p;
}
// * * * * * * * * * * * * * * * * * * * * * * * * * * * * * * * * * * * * * //

dimensions      [0 2 -2 0 0 0 0];

internalField   nonuniform List<scalar> 
10981
(
-1.93922e-16
2.22219e-07
8.44364e-07
2.03348e-06
3.74727e-06
5.96499e-06
8.68621e-06
1.19093e-05
1.56289e-05
1.98377e-05
2.45253e-05
2.9676e-05
3.52675e-05
4.12698e-05
4.76456e-05
5.43502e-05
6.13336e-05
6.8541e-05
7.59153e-05
8.33984e-05
9.09335e-05
9.84661e-05
0.000105946
0.000113327
0.000120569
0.000127638
0.000134506
0.000141149
0.000147549
0.000153694
0.000159574
0.000165183
0.000170517
0.000175575
0.000180357
0.000184866
0.000189105
0.000193079
0.000196792
0.000200252
0.000203466
0.000206444
0.000209194
0.000211728
0.000214057
0.000216192
0.000218145
0.000219929
0.000221554
0.000223031
0.000224371
0.000225583
0.000226676
0.000227656
0.000228533
0.000229312
0.000230002
0.00023061
0.000231144
0.00023161
0.000232017
0.00023237
0.000232677
0.000232944
0.000233175
0.000233374
0.000233546
0.000233693
0.000233818
0.000233923
0.00023401
0.000234079
0.000234134
0.000234175
0.000234205
0.000234225
0.000234237
0.000234242
0.000234245
1.96941e-06
2.53771e-06
3.8174e-06
5.76475e-06
8.25926e-06
1.12441e-05
1.46807e-05
1.85297e-05
2.27541e-05
2.73225e-05
3.22084e-05
3.73888e-05
4.28424e-05
4.85487e-05
5.44864e-05
6.06328e-05
6.69626e-05
7.3448e-05
8.00588e-05
8.67624e-05
9.35246e-05
0.00010031
0.000107085
0.000113814
0.000120465
0.000127008
0.000133416
0.000139664
0.000145732
0.000151602
0.00015726
0.000162693
0.000167894
0.000172855
0.000177572
0.000182041
0.000186263
0.000190236
0.000193964
0.00019745
0.000200698
0.000203715
0.000206509
0.000209088
0.000211462
0.000213641
0.000215637
0.000217461
0.000219123
0.000220634
0.000222005
0.000223244
0.000224361
0.000225363
0.000226258
0.000227055
0.00022776
0.00022838
0.000228925
0.0002294
0.000229815
0.000230175
0.000230487
0.000230757
0.00023099
0.00023119
0.000231362
0.000231508
0.00023163
0.000231732
0.000231814
0.00023188
0.000231929
0.000231966
0.000231991
0.000232006
0.000232014
0.000232016
0.000232018
-1.12137e-05
-9.46093e-06
-6.11138e-06
-1.95417e-06
2.66622e-06
7.68339e-06
1.30258e-05
1.86075e-05
2.43571e-05
3.02214e-05
3.6161e-05
4.21479e-05
4.81638e-05
5.41978e-05
6.02451e-05
6.63047e-05
7.23777e-05
7.84655e-05
8.45688e-05
9.06856e-05
9.68111e-05
0.000102937
0.000109051
0.000115139
0.000121184
0.000127165
0.000133064
0.00013886
0.000144533
0.000150065
0.000155439
0.00016064
0.000165655
0.000170472
0.000175083
0.000179478
0.000183654
0.000187606
0.000191331
0.00019483
0.000198104
0.000201156
0.000203991
0.000206616
0.000209037
0.000211265
0.000213308
0.000215176
0.000216881
0.000218432
0.000219839
0.000221112
0.000222259
0.000223289
0.000224209
0.000225028
0.000225752
0.00022639
0.00022695
0.000227438
0.000227863
0.000228232
0.000228551
0.000228825
0.000229061
0.000229263
0.000229434
0.000229578
0.000229697
0.000229794
0.00022987
0.000229929
0.000229972
0.00023
0.000230018
0.000230027
0.000230028
0.000230026
0.000230026
9.60037e-06
1.04853e-05
1.32756e-05
1.71969e-05
2.15711e-05
2.62597e-05
3.11881e-05
3.62503e-05
4.13588e-05
4.64589e-05
5.1521e-05
5.65339e-05
6.15008e-05
6.6434e-05
7.13509e-05
7.62704e-05
8.12105e-05
8.61869e-05
9.12119e-05
9.62939e-05
0.000101437
0.000106639
0.000111896
0.000117196
0.000122525
0.000127864
0.000133192
0.000138488
0.000143728
0.000148891
0.000153955
0.000158901
0.000163709
0.000168364
0.000172851
0.000177157
0.000181273
0.000185189
0.0001889
0.000192402
0.000195692
0.000198771
0.00020164
0.000204303
0.000206765
0.000209035
0.000211119
0.000213028
0.000214771
0.000216357
0.000217796
0.000219097
0.00022027
0.000221323
0.000222264
0.000223101
0.000223842
0.000224494
0.000225065
0.000225563
0.000225997
0.000226372
0.000226695
0.000226974
0.000227212
0.000227415
0.000227586
0.000227728
0.000227846
0.00022794
0.000228014
0.000228069
0.000228108
0.000228134
0.000228148
0.000228154
0.000228153
0.00022815
0.000228148
5.00409e-05
4.90058e-05
4.92252e-05
5.06387e-05
5.25477e-05
5.48042e-05
5.74089e-05
6.02982e-05
6.33839e-05
6.65921e-05
6.98682e-05
7.3178e-05
7.65078e-05
7.98629e-05
8.32629e-05
8.67343e-05
9.03045e-05
9.39965e-05
9.78259e-05
0.000101801
0.000105923
0.000110187
0.000114585
0.000119104
0.000123728
0.000128438
0.000133212
0.000138024
0.000142849
0.00014766
0.000152431
0.000157137
0.000161755
0.000166261
0.000170638
0.000174867
0.000178934
0.000182825
0.000186531
0.000190044
0.000193357
0.000196468
0.000199376
0.000202082
0.00020459
0.000206905
0.000209034
0.000210984
0.000212765
0.000214386
0.000215857
0.000217187
0.000218385
0.00021946
0.00022042
0.000221273
0.000222028
0.000222693
0.000223275
0.000223783
0.000224225
0.000224606
0.000224936
0.000225218
0.00022546
0.000225666
0.000225839
0.000225984
0.000226102
0.000226197
0.00022627
0.000226325
0.000226363
0.000226388
0.000226401
0.000226405
0.000226403
0.000226398
0.000226395
9.12899e-05
8.98178e-05
8.89013e-05
8.87033e-05
8.87721e-05
8.90092e-05
8.94713e-05
9.01777e-05
9.11075e-05
9.22261e-05
9.34941e-05
9.48717e-05
9.63277e-05
9.78464e-05
9.94327e-05
0.000101112
0.000102926
0.000104921
0.000107143
0.000109624
0.000112381
0.000115415
0.000118715
0.000122259
0.000126023
0.000129977
0.00013409
0.00013833
0.000142664
0.000147059
0.000151482
0.000155901
0.000160285
0.000164607
0.000168841
0.000172963
0.000176953
0.000180795
0.000184472
0.000187974
0.00019129
0.000194414
0.000197344
0.000200076
0.000202614
0.000204959
0.000207119
0.000209099
0.000210907
0.000212553
0.000214046
0.000215395
0.00021661
0.000217698
0.00021867
0.000219534
0.000220298
0.00022097
0.000221558
0.000222072
0.000222517
0.000222903
0.000223236
0.000223522
0.000223766
0.000223974
0.000224149
0.000224296
0.000224416
0.000224512
0.000224588
0.000224644
0.000224684
0.000224711
0.000224725
0.000224731
0.000224729
0.000224723
0.000224719
0.000113667
0.000112657
0.000111897
0.000111552
0.000111393
0.000111328
0.000111377
0.000111563
0.000111889
0.000112344
0.000112905
0.00011354
0.000114214
0.000114894
0.000115558
0.000116207
0.000116865
0.000117585
0.000118436
0.000119496
0.000120835
0.000122504
0.000124529
0.000126914
0.000129641
0.00013268
0.000135994
0.000139541
0.000143281
0.000147169
0.000151166
0.000155229
0.000159323
0.000163409
0.000167456
0.000171434
0.000175316
0.00017908
0.000182705
0.000186174
0.000189476
0.000192599
0.000195538
0.000198287
0.000200845
0.000203216
0.000205401
0.000207406
0.000209239
0.000210908
0.000212421
0.000213789
0.000215019
0.000216122
0.000217106
0.00021798
0.000218753
0.000219433
0.000220028
0.000220548
0.000220999
0.000221389
0.000221726
0.000222015
0.000222263
0.000222473
0.00022265
0.000222798
0.000222919
0.000223016
0.000223092
0.000223148
0.000223187
0.000223212
0.000223225
0.000223229
0.000223224
0.000223215
0.000223208
0.000126618
0.000125904
0.000125293
0.000124915
0.000124678
0.000124528
0.000124475
0.000124537
0.00012473
0.000125058
0.000125513
0.00012607
0.000126689
0.000127321
0.000127914
0.000128426
0.000128834
0.000129145
0.0001294
0.000129672
0.000130056
0.000130653
0.00013155
0.000132811
0.000134464
0.000136511
0.000138931
0.000141688
0.000144738
0.000148032
0.000151522
0.00015516
0.000158898
0.000162694
0.000166506
0.000170298
0.000174035
0.00017769
0.000181236
0.000184653
0.000187921
0.000191028
0.000193963
0.000196719
0.000199292
0.00020168
0.000203887
0.000205915
0.000207771
0.000209461
0.000210994
0.00021238
0.000213627
0.000214744
0.000215741
0.000216626
0.000217409
0.000218097
0.000218701
0.000219227
0.000219684
0.000220079
0.00022042
0.000220712
0.000220961
0.000221173
0.000221351
0.000221499
0.00022162
0.000221716
0.000221789
0.000221843
0.00022188
0.000221902
0.000221912
0.000221912
0.000221904
0.000221891
0.000221882
0.000135466
0.000134932
0.00013444
0.000134069
0.00013377
0.000133526
0.000133352
0.000133266
0.000133285
0.000133434
0.000133731
0.000134179
0.000134767
0.000135458
0.000136197
0.000136915
0.000137545
0.000138034
0.000138357
0.000138532
0.000138617
0.000138707
0.000138916
0.000139356
0.000140116
0.000141256
0.000142799
0.00014474
0.00014705
0.000149689
0.000152608
0.000155756
0.00015908
0.000162529
0.000166056
0.000169616
0.000173169
0.00017668
0.000180116
0.000183452
0.000186664
0.000189734
0.000192649
0.000195396
0.00019797
0.000200367
0.000202586
0.000204629
0.000206501
0.000208208
0.000209757
0.000211158
0.000212418
0.000213546
0.000214554
0.000215448
0.000216239
0.000216935
0.000217544
0.000218075
0.000218537
0.000218935
0.000219279
0.000219573
0.000219824
0.000220036
0.000220214
0.000220362
0.000220481
0.000220576
0.000220647
0.000220699
0.000220733
0.000220752
0.000220759
0.000220756
0.000220744
0.000220729
0.000220718
0.000141785
0.000141378
0.000140983
0.000140654
0.00014036
0.000140089
0.000139852
0.000139668
0.000139557
0.00013954
0.00013964
0.000139886
0.000140297
0.000140877
0.000141605
0.000142434
0.000143292
0.000144093
0.000144759
0.000145235
0.00014551
0.00014562
0.000145651
0.000145715
0.000145936
0.000146421
0.000147248
0.00014846
0.000150066
0.000152049
0.000154374
0.000156995
0.000159863
0.000162922
0.00016612
0.000169407
0.000172738
0.000176069
0.000179364
0.000182591
0.000185722
0.000188733
0.000191607
0.000194329
0.000196889
0.000199281
0.000201501
0.000203551
0.000205431
0.000207148
0.000208707
0.000210117
0.000211386
0.000212524
0.000213538
0.000214438
0.000215235
0.000215935
0.000216548
0.000217083
0.000217547
0.000217948
0.000218293
0.000218588
0.00021884
0.000219053
0.00021923
0.000219377
0.000219495
0.000219588
0.000219658
0.000219707
0.000219738
0.000219755
0.000219759
0.000219753
0.000219739
0.000219721
0.000219708
0.000146565
0.000146256
0.000145945
0.000145672
0.000145415
0.000145166
0.00014493
0.000144718
0.000144547
0.000144435
0.000144404
0.000144481
0.000144694
0.000145073
0.000145635
0.000146374
0.000147257
0.000148219
0.000149169
0.000150009
0.000150659
0.00015108
0.00015129
0.000151359
0.0001514
0.000151539
0.000151892
0.00015255
0.000153564
0.000154955
0.000156714
0.000158812
0.000161208
0.000163852
0.000166692
0.000169675
0.00017275
0.00017587
0.000178994
0.000182084
0.000185107
0.000188037
0.00019085
0.000193528
0.000196058
0.00019843
0.00020064
0.000202684
0.000204564
0.000206283
0.000207846
0.00020926
0.000210533
0.000211674
0.000212692
0.000213595
0.000214394
0.000215096
0.000215711
0.000216247
0.000216713
0.000217114
0.00021746
0.000217756
0.000218007
0.00021822
0.000218397
0.000218542
0.000218659
0.00021875
0.000218818
0.000218865
0.000218894
0.000218908
0.000218909
0.000218901
0.000218884
0.000218864
0.00021885
0.000150183
0.000149948
0.000149711
0.0001495
0.000149297
0.000149095
0.000148896
0.000148707
0.000148537
0.000148399
0.000148312
0.000148297
0.00014838
0.000148591
0.000148961
0.000149516
0.000150262
0.000151182
0.00015222
0.000153287
0.000154279
0.000155095
0.000155673
0.00015601
0.000156166
0.000156247
0.000156382
0.000156693
0.000157275
0.000158186
0.000159453
0.00016107
0.000163014
0.000165245
0.000167716
0.000170377
0.000173176
0.000176063
0.000178992
0.000181922
0.000184816
0.000187642
0.000190375
0.000192991
0.000195476
0.000197815
0.000200001
0.00020203
0.000203899
0.000205612
0.000207172
0.000208584
0.000209856
0.000210997
0.000212014
0.000212918
0.000213716
0.000214418
0.000215033
0.000215568
0.000216033
0.000216434
0.000216779
0.000217074
0.000217325
0.000217536
0.000217712
0.000217856
0.000217971
0.00021806
0.000218126
0.000218171
0.000218197
0.000218209
0.000218208
0.000218197
0.000218178
0.000218157
0.000218142
0.000153149
0.000152964
0.000152778
0.000152614
0.000152456
0.000152295
0.000152134
0.000151974
0.000151821
0.000151684
0.000151573
0.000151505
0.000151501
0.000151588
0.000151792
0.000152146
0.000152676
0.000153399
0.000154307
0.000155359
0.000156479
0.000157563
0.000158504
0.000159226
0.000159707
0.000159992
0.00016018
0.000160395
0.000160757
0.000161359
0.000162262
0.000163492
0.000165048
0.000166907
0.000169034
0.000171384
0.000173908
0.000176557
0.000179283
0.000182042
0.000184795
0.000187507
0.000190147
0.000192691
0.000195118
0.000197415
0.000199569
0.000201574
0.000203427
0.000205128
0.000206679
0.000208085
0.000209353
0.00021049
0.000211504
0.000212405
0.000213201
0.000213901
0.000214513
0.000215047
0.00021551
0.00021591
0.000216253
0.000216547
0.000216796
0.000217006
0.00021718
0.000217322
0.000217436
0.000217523
0.000217586
0.000217629
0.000217653
0.000217662
0.000217658
0.000217645
0.000217624
0.000217601
0.000217585
0.000155649
0.000155503
0.00015536
0.000155238
0.000155121
0.000155002
0.000154881
0.000154758
0.000154637
0.000154523
0.000154422
0.000154345
0.000154309
0.000154331
0.000154437
0.000154653
0.000155008
0.00015553
0.000156237
0.000157126
0.000158169
0.000159299
0.00016042
0.000161428
0.000162241
0.000162831
0.000163234
0.000163541
0.000163866
0.000164323
0.000165
0.000165952
0.000167202
0.000168749
0.000170572
0.000172636
0.0001749
0.000177317
0.00017984
0.000182424
0.000185029
0.000187617
0.000190155
0.000192617
0.000194978
0.000197223
0.000199336
0.00020131
0.000203139
0.000204822
0.000206359
0.000207755
0.000209014
0.000210144
0.000211153
0.000212048
0.000212839
0.000213534
0.000214143
0.000214673
0.000215133
0.00021553
0.000215871
0.000216163
0.00021641
0.000216618
0.00021679
0.00021693
0.000217042
0.000217126
0.000217188
0.000217228
0.00021725
0.000217256
0.00021725
0.000217235
0.000217213
0.000217188
0.000217171
0.000157779
0.000157662
0.000157553
0.000157467
0.000157387
0.000157305
0.00015722
0.000157131
0.000157041
0.000156952
0.000156869
0.0001568
0.000156757
0.000156753
0.000156808
0.000156944
0.000157186
0.000157562
0.000158096
0.000158806
0.000159693
0.000160732
0.000161863
0.000163
0.000164043
0.000164915
0.000165587
0.000166092
0.000166516
0.000166965
0.000167543
0.000168326
0.000169362
0.000170668
0.00017224
0.000174058
0.000176087
0.000178288
0.000180617
0.00018303
0.000185486
0.000187947
0.000190379
0.000192751
0.00019504
0.000197225
0.000199292
0.000201228
0.000203028
0.000204687
0.000206206
0.000207586
0.000208833
0.000209953
0.000210952
0.00021184
0.000212624
0.000213313
0.000213916
0.000214441
0.000214897
0.00021529
0.000215628
0.000215917
0.000216161
0.000216367
0.000216537
0.000216675
0.000216784
0.000216867
0.000216926
0.000216964
0.000216983
0.000216988
0.00021698
0.000216963
0.00021694
0.000216914
0.000216897
0.000159708
0.000159607
0.00015952
0.000159459
0.000159406
0.000159351
0.000159293
0.000159231
0.000159165
0.000159096
0.000159028
0.000158968
0.000158924
0.000158907
0.000158932
0.000159016
0.000159183
0.000159454
0.000159856
0.00016041
0.000161133
0.000162027
0.000163067
0.000164201
0.000165346
0.000166411
0.000167326
0.000168067
0.000168669
0.000169213
0.000169799
0.000170515
0.000171425
0.000172566
0.00017395
0.000175569
0.000177399
0.00017941
0.000181562
0.000183814
0.000186128
0.000188464
0.000190789
0.00019307
0.000195283
0.000197406
0.00019942
0.000201315
0.00020308
0.000204712
0.000206208
0.000207571
0.000208803
0.00020991
0.000210898
0.000211776
0.000212551
0.000213232
0.000213828
0.000214348
0.000214798
0.000215187
0.00021552
0.000215805
0.000216047
0.00021625
0.000216417
0.000216553
0.00021666
0.000216741
0.000216798
0.000216834
0.000216852
0.000216855
0.000216846
0.000216827
0.000216802
0.000216776
0.000216759
0.000161544
0.000161446
0.000161365
0.00016131
0.000161265
0.000161219
0.000161171
0.00016112
0.000161064
0.000161005
0.000160944
0.000160887
0.000160839
0.000160811
0.000160814
0.000160864
0.000160978
0.000161177
0.000161482
0.000161915
0.000162498
0.000163243
0.000164152
0.000165201
0.000166341
0.000167495
0.000168581
0.000169537
0.000170347
0.000171052
0.000171727
0.00017246
0.000173327
0.000174376
0.000175633
0.000177105
0.000178778
0.00018063
0.000182628
0.000184737
0.000186919
0.000189138
0.000191359
0.000193551
0.000195687
0.000197745
0.000199706
0.000201556
0.000203285
0.000204886
0.000206358
0.0002077
0.000208914
0.000210006
0.000210982
0.000211848
0.000212614
0.000213286
0.000213874
0.000214387
0.000214831
0.000215214
0.000215544
0.000215825
0.000216063
0.000216263
0.000216428
0.000216562
0.000216667
0.000216746
0.000216801
0.000216836
0.000216852
0.000216853
0.000216843
0.000216823
0.000216797
0.000216771
0.000216754
0.00016344
0.000163335
0.000163243
0.000163174
0.000163113
0.000163052
0.000162989
0.000162924
0.000162854
0.000162781
0.000162706
0.000162633
0.000162566
0.000162514
0.000162488
0.0001625
0.000162566
0.000162704
0.000162934
0.000163273
0.000163742
0.000164358
0.000165133
0.000166065
0.000167133
0.000168286
0.000169457
0.00017057
0.000171576
0.000172469
0.000173291
0.000174113
0.000175009
0.000176036
0.000177231
0.00017861
0.00018017
0.000181899
0.000183771
0.000185758
0.000187824
0.000189936
0.000192061
0.000194168
0.000196231
0.000198225
0.000200132
0.000201937
0.000203628
0.000205198
0.000206643
0.000207963
0.000209159
0.000210235
0.000211197
0.000212051
0.000212805
0.000213468
0.000214048
0.000214553
0.000214991
0.000215368
0.000215693
0.00021597
0.000216205
0.000216402
0.000216565
0.000216697
0.0002168
0.000216878
0.000216931
0.000216964
0.000216979
0.000216979
0.000216967
0.000216947
0.00021692
0.000216893
0.000216877
0.000165365
0.000165251
0.000165142
0.000165049
0.000164961
0.000164871
0.000164779
0.000164683
0.000164585
0.000164483
0.00016438
0.000164277
0.000164179
0.000164094
0.00016403
0.000164
0.000164018
0.000164102
0.000164269
0.000164538
0.000164925
0.000165447
0.000166119
0.000166948
0.000167929
0.000169039
0.000170229
0.000171431
0.000172583
0.000173645
0.000174625
0.000175568
0.000176537
0.00017759
0.000178769
0.000180099
0.000181585
0.000183223
0.000184996
0.000186879
0.000188844
0.00019086
0.000192896
0.000194923
0.000196914
0.000198845
0.000200698
0.000202456
0.000204107
0.000205643
0.00020706
0.000208356
0.000209531
0.000210589
0.000211536
0.000212376
0.000213119
0.000213771
0.000214341
0.000214838
0.000215268
0.00021564
0.000215959
0.000216232
0.000216463
0.000216658
0.000216818
0.000216948
0.00021705
0.000217126
0.000217178
0.00021721
0.000217224
0.000217223
0.000217211
0.00021719
0.000217163
0.000217137
0.000217121
0.000167335
0.000167211
0.00016708
0.000166957
0.000166833
0.000166703
0.000166569
0.000166431
0.000166289
0.000166144
0.000165996
0.000165849
0.000165707
0.000165575
0.000165462
0.000165379
0.000165341
0.000165364
0.000165466
0.000165668
0.000165985
0.000166432
0.000167024
0.000167771
0.000168676
0.000169731
0.000170907
0.000172153
0.000173407
0.000174615
0.000175752
0.000176834
0.000177908
0.000179025
0.00018023
0.00018155
0.000183
0.000184579
0.000186278
0.00018808
0.00018996
0.000191892
0.000193848
0.0001958
0.000197723
0.000199594
0.000201392
0.000203103
0.000204714
0.000206216
0.000207603
0.000208873
0.000210026
0.000211065
0.000211995
0.000212821
0.00021355
0.000214191
0.000214751
0.000215238
0.000215661
0.000216026
0.00021634
0.000216608
0.000216836
0.000217027
0.000217186
0.000217314
0.000217414
0.000217489
0.00021754
0.000217572
0.000217585
0.000217584
0.000217571
0.00021755
0.000217523
0.000217497
0.000217482
0.000169354
0.000169219
0.000169065
0.000168907
0.000168741
0.000168566
0.000168383
0.000168194
0.000167999
0.0001678
0.000167599
0.000167398
0.000167201
0.000167012
0.000166841
0.000166696
0.000166593
0.000166547
0.000166578
0.000166705
0.00016695
0.000167327
0.00016785
0.000168528
0.000169366
0.000170366
0.000171511
0.00017277
0.00017409
0.000175414
0.000176696
0.000177927
0.000179128
0.000180341
0.000181606
0.000182953
0.0001844
0.000185951
0.000187603
0.000189345
0.000191158
0.00019302
0.000194905
0.00019679
0.00019865
0.000200463
0.000202209
0.000203874
0.000205444
0.00020691
0.000208266
0.00020951
0.00021064
0.000211659
0.00021257
0.00021338
0.000214096
0.000214724
0.000215273
0.000215751
0.000216166
0.000216524
0.000216832
0.000217096
0.00021732
0.000217508
0.000217664
0.000217791
0.00021789
0.000217963
0.000218014
0.000218045
0.000218058
0.000218057
0.000218044
0.000218023
0.000217996
0.000217971
0.000217956
0.000171388
0.000171248
0.000171073
0.00017088
0.000170673
0.000170451
0.000170218
0.000169976
0.000169726
0.000169469
0.000169209
0.000168948
0.000168689
0.000168438
0.000168202
0.000167991
0.000167817
0.000167697
0.000167651
0.0001677
0.000167868
0.000168173
0.000168629
0.000169247
0.000170032
0.000170985
0.000172098
0.000173353
0.00017471
0.000176118
0.000177525
0.000178898
0.000180237
0.000181566
0.000182917
0.00018432
0.000185792
0.000187342
0.000188971
0.000190673
0.000192436
0.00019424
0.000196066
0.00019789
0.000199692
0.00020145
0.000203146
0.000204765
0.000206294
0.000207724
0.000209048
0.000210263
0.000211369
0.000212366
0.000213258
0.000214052
0.000214752
0.000215367
0.000215905
0.000216372
0.000216778
0.000217128
0.00021743
0.000217689
0.000217909
0.000218094
0.000218248
0.000218373
0.000218471
0.000218544
0.000218594
0.000218624
0.000218637
0.000218635
0.000218623
0.000218602
0.000218576
0.000218551
0.000218538
0.000173343
0.000173209
0.000173024
0.000172808
0.00017257
0.000172313
0.00017204
0.000171753
0.000171454
0.000171145
0.00017083
0.000170511
0.000170192
0.000169879
0.000169579
0.000169301
0.000169057
0.000168864
0.00016874
0.000168709
0.000168797
0.000169026
0.000169417
0.00016998
0.000170722
0.000171641
0.000172732
0.000173982
0.000175363
0.000176833
0.000178339
0.000179838
0.00018131
0.000182761
0.000184212
0.000185688
0.000187205
0.000188774
0.000190399
0.000192078
0.000193804
0.000195562
0.000197335
0.000199106
0.000200853
0.000202559
0.000204206
0.000205779
0.000207266
0.000208658
0.000209948
0.000211133
0.000212212
0.000213185
0.000214057
0.000214832
0.000215515
0.000216116
0.00021664
0.000217096
0.000217492
0.000217834
0.000218129
0.000218382
0.000218598
0.000218779
0.000218931
0.000219054
0.00021915
0.000219222
0.000219272
0.000219302
0.000219315
0.000219314
0.000219301
0.000219281
0.000219256
0.000219232
0.00021922
0.00017511
0.00017499
0.000174806
0.000174582
0.000174331
0.000174057
0.000173762
0.000173449
0.000173119
0.000172776
0.000172422
0.00017206
0.000171695
0.000171332
0.000170978
0.000170643
0.000170338
0.00017008
0.000169887
0.000169782
0.000169793
0.000169949
0.000170273
0.000170783
0.000171486
0.000172381
0.000173461
0.000174714
0.000176117
0.000177635
0.000179222
0.000180829
0.000182422
0.000183991
0.000185545
0.0001871
0.000188673
0.000190273
0.000191907
0.000193575
0.000195274
0.000196994
0.000198722
0.000200443
0.000202139
0.000203794
0.000205391
0.000206918
0.000208361
0.000209714
0.000210968
0.00021212
0.000213169
0.000214117
0.000214965
0.000215718
0.000216384
0.000216967
0.000217477
0.00021792
0.000218305
0.000218637
0.000218924
0.00021917
0.000219381
0.000219558
0.000219707
0.000219827
0.000219922
0.000219993
0.000220043
0.000220072
0.000220085
0.000220084
0.000220072
0.000220053
0.000220029
0.000220006
0.000219995
0.00017673
0.000176624
0.000176445
0.000176219
0.000175964
0.000175683
0.000175378
0.000175052
0.000174705
0.000174341
0.000173963
0.000173573
0.000173175
0.000172777
0.000172383
0.000172005
0.000171653
0.000171342
0.000171092
0.000170926
0.000170871
0.000170959
0.000171218
0.000171672
0.000172333
0.000173202
0.000174271
0.000175526
0.000176946
0.000178501
0.000180151
0.00018185
0.000183554
0.000185238
0.0001869
0.000188544
0.000190184
0.000191827
0.000193481
0.000195149
0.000196832
0.000198523
0.000200214
0.000201891
0.000203539
0.000205145
0.000206695
0.000208174
0.000209574
0.000210885
0.000212102
0.00021322
0.000214238
0.000215157
0.00021598
0.00021671
0.000217355
0.00021792
0.000218414
0.000218843
0.000219215
0.000219537
0.000219815
0.000220054
0.000220258
0.000220431
0.000220576
0.000220694
0.000220787
0.000220857
0.000220905
0.000220934
0.000220947
0.000220946
0.000220934
0.000220916
0.000220892
0.00022087
0.00022086
0.000178169
0.00017808
0.000177912
0.000177693
0.000177444
0.000177169
0.000176869
0.000176545
0.000176198
0.00017583
0.000175445
0.000175045
0.000174634
0.000174218
0.000173804
0.000173401
0.000173021
0.000172678
0.000172391
0.000172182
0.00017208
0.000172117
0.000172323
0.000172729
0.000173351
0.000174196
0.000175256
0.000176514
0.00017795
0.000179535
0.000181232
0.000183
0.000184794
0.000186579
0.000188339
0.00019007
0.000191777
0.000193467
0.000195146
0.000196821
0.000198493
0.000200161
0.000201817
0.000203453
0.000205057
0.000206615
0.000208117
0.00020955
0.000210904
0.000212173
0.000213349
0.00021443
0.000215415
0.000216303
0.000217098
0.000217804
0.000218426
0.000218971
0.000219447
0.00021986
0.000220218
0.000220528
0.000220795
0.000221026
0.000221223
0.00022139
0.00022153
0.000221645
0.000221735
0.000221803
0.00022185
0.000221878
0.00022189
0.000221889
0.000221878
0.00022186
0.000221837
0.000221816
0.000221807
0.000179365
0.000179296
0.000179149
0.000178953
0.000178729
0.000178478
0.000178202
0.0001779
0.000177573
0.000177223
0.000176852
0.000176463
0.000176061
0.000175651
0.00017524
0.000174837
0.000174452
0.000174101
0.000173802
0.000173576
0.000173452
0.00017346
0.000173635
0.000174008
0.000174604
0.000175432
0.000176488
0.000177755
0.000179209
0.000180821
0.000182556
0.000184375
0.000186235
0.000188097
0.000189936
0.000191738
0.000193502
0.000195231
0.000196932
0.000198611
0.000200273
0.000201917
0.000203541
0.000205137
0.000206696
0.000208207
0.000209659
0.000211044
0.000212351
0.000213574
0.000214708
0.00021575
0.000216698
0.000217553
0.000218317
0.000218995
0.000219592
0.000220115
0.00022057
0.000220965
0.000221307
0.000221603
0.000221859
0.000222079
0.000222268
0.000222429
0.000222563
0.000222673
0.00022276
0.000222826
0.000222871
0.000222898
0.000222909
0.000222908
0.000222896
0.000222879
0.000222857
0.000222837
0.000222829
0.000180285
0.000180241
0.000180127
0.000179972
0.000179792
0.000179587
0.000179355
0.000179096
0.000178812
0.000178504
0.000178173
0.000177823
0.000177456
0.000177079
0.000176697
0.000176319
0.000175958
0.000175626
0.000175341
0.000175126
0.000175007
0.000175015
0.000175184
0.000175546
0.000176131
0.000176952
0.000178009
0.000179287
0.000180761
0.000182399
0.000184165
0.000186022
0.000187927
0.000189841
0.000191733
0.000193584
0.000195387
0.000197141
0.000198853
0.00020053
0.000202177
0.000203796
0.000205386
0.000206941
0.000208454
0.000209916
0.000211318
0.000212652
0.00021391
0.000215086
0.000216175
0.000217174
0.000218083
0.000218901
0.000219632
0.000220279
0.000220849
0.000221346
0.000221779
0.000222153
0.000222477
0.000222757
0.000222999
0.000223207
0.000223386
0.000223538
0.000223665
0.00022377
0.000223852
0.000223914
0.000223956
0.000223982
0.000223992
0.00022399
0.000223979
0.000223962
0.000223941
0.000223922
0.000223915
0.000180937
0.000180934
0.000180896
0.000180826
0.000180722
0.000180585
0.000180416
0.000180215
0.000179985
0.000179728
0.000179447
0.000179146
0.000178829
0.0001785
0.000178168
0.00017784
0.000177526
0.000177241
0.000177002
0.000176828
0.000176747
0.000176788
0.000176983
0.000177366
0.000177965
0.000178799
0.00017987
0.000181166
0.000182661
0.000184322
0.000186111
0.00018799
0.000189918
0.000191856
0.000193771
0.000195641
0.000197456
0.000199214
0.000200922
0.000202586
0.000204211
0.0002058
0.000207352
0.000208863
0.000210328
0.000211739
0.000213088
0.000214369
0.000215575
0.0002167
0.000217741
0.000218695
0.000219562
0.000220341
0.000221037
0.000221652
0.000222191
0.000222662
0.000223071
0.000223424
0.000223729
0.000223992
0.000224218
0.000224414
0.000224581
0.000224723
0.000224843
0.000224941
0.000225018
0.000225075
0.000225114
0.000225137
0.000225145
0.000225143
0.000225131
0.000225115
0.000225095
0.000225076
0.00022507
0.000180539
0.000180613
0.000180732
0.000180853
0.00018094
0.00018099
0.000181004
0.000180984
0.000180929
0.00018084
0.000180719
0.000180568
0.000180391
0.000180193
0.00017998
0.000179762
0.000179549
0.000179355
0.000179199
0.000179101
0.000179088
0.00017919
0.000179442
0.000179877
0.000180521
0.000181393
0.000182497
0.00018382
0.000185337
0.00018701
0.000188798
0.000190661
0.00019256
0.000194458
0.000196325
0.000198144
0.000199909
0.000201619
0.000203281
0.0002049
0.000206478
0.000208018
0.000209516
0.000210971
0.000212375
0.000213724
0.00021501
0.000216228
0.000217372
0.000218438
0.000219422
0.000220323
0.00022114
0.000221873
0.000222527
0.000223103
0.000223608
0.000224047
0.000224427
0.000224754
0.000225036
0.000225278
0.000225486
0.000225665
0.000225817
0.000225947
0.000226055
0.000226143
0.000226212
0.000226263
0.000226297
0.000226317
0.000226324
0.00022632
0.000226309
0.000226294
0.000226276
0.000226258
0.000226252
0.000181937
0.000182032
0.000182184
0.000182338
0.000182457
0.000182537
0.000182582
0.00018259
0.000182563
0.000182502
0.000182409
0.000182287
0.000182141
0.000181976
0.000181799
0.000181619
0.000181446
0.000181295
0.000181181
0.000181125
0.000181151
0.000181285
0.000181557
0.000181996
0.00018263
0.000183476
0.000184539
0.00018581
0.000187267
0.000188878
0.00019061
0.000192429
0.000194303
0.000196201
0.000198091
0.000199949
0.00020176
0.000203514
0.00020521
0.00020685
0.000208436
0.000209971
0.000211454
0.000212884
0.000214258
0.000215572
0.000216822
0.000218002
0.000219108
0.000220137
0.000221085
0.000221952
0.000222737
0.000223442
0.000224068
0.00022462
0.000225103
0.000225523
0.000225885
0.000226197
0.000226466
0.000226697
0.000226895
0.000227065
0.000227211
0.000227334
0.000227436
0.000227519
0.000227581
0.000227626
0.000227653
0.000227665
0.000227663
0.000227651
0.000227632
0.000227609
0.000227584
0.000227561
0.000227553
0.000184091
0.000184164
0.000184271
0.000184379
0.000184464
0.000184526
0.000184564
0.000184577
0.000184567
0.000184531
0.000184472
0.00018439
0.000184289
0.000184173
0.000184046
0.000183917
0.000183796
0.000183694