/*--------------------------------*- C++ -*----------------------------------*\
  =========                 |
  \\      /  F ield         | OpenFOAM: The Open Source CFD Toolbox
   \\    /   O peration     | Website:  https://openfoam.org
    \\  /    A nd           | Version:  7
     \\/     M anipulation  |
\*---------------------------------------------------------------------------*/
FoamFile
{
    version     2.0;
    format      ascii;
    class       surfaceScalarField;
    location    "20000";
    object      phi;
}
// * * * * * * * * * * * * * * * * * * * * * * * * * * * * * * * * * * * * * //

dimensions      [0 3 -1 0 0 0 0];

internalField   nonuniform List<scalar> 
21744
(
-1.4819e-07
4.44034e-06
9.07206e-08
8.78825e-06
6.23587e-07
1.16627e-05
1.33679e-06
1.41831e-05
2.14254e-06
1.6574e-05
2.98591e-06
1.89225e-05
3.83683e-06
2.12812e-05
4.68021e-06
2.36881e-05
5.50888e-06
2.61727e-05
6.31919e-06
2.87581e-05
7.10863e-06
3.14631e-05
7.87453e-06
3.43021e-05
8.61345e-06
3.72869e-05
9.32095e-06
4.04262e-05
9.99169e-06
4.37263e-05
1.06196e-05
4.71912e-05
1.11982e-05
5.08222e-05
1.1721e-05
5.46184e-05
1.21817e-05
5.85759e-05
1.25749e-05
6.26885e-05
1.2896e-05
6.69472e-05
1.31417e-05
7.13397e-05
1.33102e-05
7.58509e-05
1.34013e-05
8.04624e-05
1.34163e-05
8.51526e-05
1.3358e-05
8.98963e-05
1.32307e-05
9.46646e-05
1.30397e-05
9.94255e-05
1.27915e-05
0.000104143
1.24933e-05
0.000108777
1.21528e-05
0.000113287
1.17777e-05
0.000117625
1.13759e-05
0.000121743
1.09547e-05
0.000125593
1.0521e-05
0.000129121
1.00808e-05
0.000132278
9.63919e-06
0.000135013
9.20033e-06
0.00013728
8.76738e-06
0.000139037
8.34259e-06
0.000140246
7.92745e-06
0.000140881
7.52281e-06
0.000140924
7.1291e-06
0.000140366
6.74646e-06
0.000139211
6.37487e-06
0.000137473
6.01423e-06
0.000135178
5.66444e-06
0.00013236
5.32542e-06
0.000129061
4.99706e-06
0.000125329
4.67925e-06
0.000121217
4.37182e-06
0.00011678
4.07455e-06
0.000112071
3.78712e-06
0.000107147
3.50916e-06
0.000102059
3.24024e-06
9.68591e-05
2.97993e-06
9.1594e-05
2.72784e-06
8.6309e-05
2.48373e-06
8.10458e-05
2.2475e-06
7.58429e-05
2.0193e-06
7.0735e-05
1.79949e-06
6.57531e-05
1.58869e-06
6.09233e-05
1.3877e-06
5.62664e-05
1.19748e-06
5.17982e-05
1.01906e-06
4.75284e-05
8.53531e-07
4.34619e-05
7.01924e-07
3.95987e-05
5.65184e-07
3.59348e-05
4.44072e-07
3.24628e-05
3.39079e-07
2.9173e-05
2.50328e-07
2.60534e-05
1.7749e-07
2.30906e-05
1.19741e-07
2.02685e-05
7.57873e-08
1.75676e-05
4.39609e-08
1.49604e-05
2.23734e-08
1.24025e-05
9.0515e-09
9.80777e-06
1.98075e-09
6.95313e-06
2.99279e-06
2.19079e-08
4.41843e-06
1.54484e-07
8.65568e-06
4.32337e-07
1.13848e-05
8.59091e-07
1.37564e-05
1.40934e-06
1.60237e-05
2.05323e-06
1.82786e-05
2.76532e-06
2.05691e-05
3.52623e-06
2.29272e-05
4.32173e-06
2.53771e-05
5.14109e-06
2.79388e-05
5.97558e-06
3.06286e-05
6.81741e-06
3.34603e-05
7.65897e-06
3.64453e-05
8.49239e-06
3.95928e-05
9.30932e-06
4.29094e-05
1.01009e-05
4.63996e-05
1.08581e-05
5.00651e-05
1.15713e-05
5.39051e-05
1.22317e-05
5.79156e-05
1.28305e-05
6.20897e-05
1.33601e-05
6.64175e-05
1.38141e-05
7.08857e-05
1.41875e-05
7.54775e-05
1.4477e-05
8.01729e-05
1.46812e-05
8.49484e-05
1.48006e-05
8.97769e-05
1.48371e-05
9.46281e-05
1.47945e-05
9.94681e-05
1.46779e-05
0.000104259
1.44937e-05
0.000108962
1.42489e-05
0.000113531
1.39512e-05
0.000117922
1.36085e-05
0.000122086
1.32285e-05
0.000125973
1.28189e-05
0.000129531
1.23863e-05
0.000132711
1.19371e-05
0.000135463
1.14764e-05
0.000137741
1.10086e-05
0.000139504
1.05374e-05
0.000140718
1.00654e-05
0.000141353
9.59506e-06
0.000141394
9.12796e-06
0.000140833
8.66559e-06
0.000139673
8.20919e-06
0.000137929
7.75986e-06
0.000135627
7.31863e-06
0.000132801
6.88646e-06
0.000129493
6.4642e-06
0.000125752
6.05259e-06
0.000121629
5.6522e-06
0.00011718
5.26347e-06
0.00011246
4.88663e-06
0.000107524
4.52178e-06
0.000102424
4.16888e-06
9.7212e-05
3.82782e-06
9.19351e-05
3.49849e-06
8.66384e-05
3.18086e-06
8.13634e-05
2.87503e-06
7.61487e-05
2.58128e-06
7.10288e-05
2.30007e-06
6.60343e-05
2.03207e-06
6.11913e-05
1.77807e-06
5.65204e-05
1.53898e-06
5.20372e-05
1.31576e-06
4.77516e-05
1.10932e-06
4.36684e-05
9.20562e-07
3.97875e-05
7.50229e-07
3.61051e-05
5.9889e-07
3.26142e-05
4.66831e-07
2.9305e-05
3.53982e-07
2.61663e-05
2.5983e-07
2.31847e-05
1.83409e-07
2.0345e-05
1.23303e-07
1.76277e-05
7.774e-08
1.5006e-05
4.46816e-08
1.24356e-05
2.18955e-08
9.83055e-06
7.06007e-09
6.96797e-06
2.99985e-06
1.33452e-06
3.08391e-06
2.9722e-06
7.018e-06
4.62474e-06
9.73229e-06
6.27779e-06
1.21033e-05
7.92116e-06
1.43804e-05
9.54521e-06
1.66546e-05
1.11412e-05
1.89732e-05
1.27016e-05
2.13668e-05
1.42205e-05
2.38582e-05
1.56932e-05
2.64661e-05
1.71158e-05
2.9206e-05
1.84846e-05
3.20915e-05
1.97958e-05
3.51341e-05
2.10453e-05
3.83432e-05
2.22287e-05
4.17261e-05
2.33408e-05
4.52875e-05
2.43761e-05
4.90298e-05
2.53287e-05
5.29525e-05
2.61925e-05
5.70517e-05
2.69616e-05
6.13207e-05
2.76301e-05
6.5749e-05
2.81931e-05
7.03227e-05
2.86464e-05
7.50243e-05
2.89869e-05
7.98324e-05
2.92131e-05
8.47222e-05
2.9325e-05
8.9665e-05
2.93242e-05
9.4629e-05
2.92138e-05
9.95784e-05
2.89985e-05
0.000104475
2.86842e-05
0.000109276
2.82778e-05
0.000113938
2.77871e-05
0.000118413
2.72202e-05
0.000122653
2.65855e-05
0.000126607
2.58914e-05
0.000130225
2.51458e-05
0.000133456
2.43564e-05
0.000136252
2.353e-05
0.000138568
2.2673e-05
0.000140361
2.17913e-05
0.000141599
2.08903e-05
0.000142254
1.99748e-05
0.00014231
1.90496e-05
0.000141758
1.81192e-05
0.000140603
1.71881e-05
0.00013886
1.62605e-05
0.000136555
1.53405e-05
0.000133721
1.44322e-05
0.000130401
1.35391e-05
0.000126645
1.26644e-05
0.000122504
1.18109e-05
0.000118033
1.09811e-05
0.00011329
1.01767e-05
0.000108328
9.39926e-06
0.000103202
8.64982e-06
9.79614e-05
7.92917e-06
9.26557e-05
7.23791e-06
8.73296e-05
6.57654e-06
8.20248e-05
5.94552e-06
7.67797e-05
5.34537e-06
7.16289e-05
4.77664e-06
6.6603e-05
4.2399e-06
6.1728e-05
3.7357e-06
5.70246e-05
3.26456e-06
5.25084e-05
2.82687e-06
4.81893e-05
2.42295e-06
4.40723e-05
2.05298e-06
4.01575e-05
1.71696e-06
3.64411e-05
1.41473e-06
3.29164e-05
1.14586e-06
2.95739e-05
9.09603e-07
2.64025e-05
7.04862e-07
2.33895e-05
5.3012e-07
2.05197e-05
3.83474e-07
1.77744e-05
2.62693e-07
1.51268e-05
1.65324e-07
1.2533e-05
8.88999e-08
9.90698e-06
3.14882e-08
7.02538e-06
3.03133e-06
1.79078e-06
1.29312e-06
4.71677e-06
4.09202e-06
8.03413e-06
6.41493e-06
1.15093e-05
8.6281e-06
1.50082e-05
1.08815e-05
1.84429e-05
1.32199e-05
2.17537e-05
1.56624e-05
2.49009e-05
1.82195e-05
2.78601e-05
2.0899e-05
3.06189e-05
2.37073e-05
3.31737e-05
2.66511e-05
3.55275e-05
2.97377e-05
3.76869e-05
3.29747e-05
3.96604e-05
3.63697e-05
4.14565e-05
3.99299e-05
4.3083e-05
4.3661e-05
4.45459e-05
4.7567e-05
4.58494e-05
5.1649e-05
4.69959e-05
5.59052e-05
4.79864e-05
6.03302e-05
4.88208e-05
6.49146e-05
4.94982e-05
6.96453e-05
5.00177e-05
7.45048e-05
5.03785e-05
7.94715e-05
5.05807e-05
8.452e-05
5.06251e-05
8.96206e-05
5.05138e-05
9.47402e-05
5.02504e-05
9.98418e-05
4.98398e-05
0.000104885
4.9288e-05
0.000109828
4.86024e-05
0.000114623
4.77914e-05
0.000119224
4.68638e-05
0.000123581
4.5829e-05
0.000127642
4.46967e-05
0.000131357
4.34764e-05
0.000134677
4.21775e-05
0.000137551
4.08092e-05
0.000139936
3.93804e-05
0.00014179
3.78999e-05
0.00014308
3.63762e-05
0.000143778
3.48178e-05
0.000143868
3.32332e-05
0.000143343
3.16312e-05
0.000142205
3.00202e-05
0.000140471
2.84089e-05
0.000138166
2.68055e-05
0.000135324
2.5218e-05
0.000131989
2.36537e-05
0.000128209
2.21194e-05
0.000124038
2.06208e-05
0.000119532
1.91631e-05
0.000114748
1.77502e-05
0.000109741
1.63857e-05
0.000104566
1.5072e-05
9.92751e-05
1.38112e-05
9.39166e-05
1.26047e-05
8.8536e-05
1.14539e-05
8.31756e-05
1.03597e-05
7.7874e-05
9.32273e-06
7.26659e-05
8.34374e-06
6.7582e-05
7.42312e-06
6.26486e-05
6.56107e-06
5.78867e-05
5.75752e-06
5.33119e-05
5.01217e-06
4.89347e-05
4.32445e-06
4.476e-05
3.69357e-06
4.07883e-05
3.11854e-06
3.70162e-05
2.59821e-06
3.34367e-05
2.1312e-06
3.00409e-05
1.71587e-06
2.68179e-05
1.35033e-06
2.3755e-05
1.03233e-06
2.08377e-05
7.59303e-07
1.80474e-05
5.28459e-07
1.53576e-05
3.36974e-07
1.27244e-05
1.82464e-07
1.00615e-05
6.4246e-08
7.1436e-06
3.09558e-06
1.24164e-06
5.14846e-08
3.94503e-06
1.38863e-06
7.50717e-06
2.85279e-06
1.16636e-05
4.47172e-06
1.62244e-05
6.32059e-06
2.10277e-05
8.41662e-06
2.59297e-05
1.07604e-05
3.08036e-05
1.33456e-05
3.55417e-05
1.61609e-05
4.00573e-05
1.91917e-05
4.42862e-05
2.24223e-05
4.81863e-05
2.58376e-05
5.17361e-05
2.94249e-05
5.49311e-05
3.31748e-05
5.77796e-05
3.70814e-05
6.02982e-05
4.11424e-05
6.25073e-05
4.53578e-05
6.44279e-05
4.97284e-05
6.60788e-05
5.42543e-05
6.74757e-05
5.89333e-05
6.86308e-05
6.37595e-05
6.95532e-05
6.87228e-05
7.02498e-05
7.38082e-05
7.07256e-05
7.89957e-05
7.0985e-05
8.42605e-05
7.10324e-05
8.95733e-05
7.08724e-05
9.49002e-05
7.05104e-05
0.000100204
6.99529e-05
0.000105443
6.92074e-05
0.000110573
6.82825e-05
0.000115548
6.71877e-05
0.000120319
6.59335e-05
0.000124835
6.45307e-05
0.000129045
6.29906e-05
0.000132897
6.13248e-05
0.000136342
5.95448e-05
0.000139331
5.76622e-05
0.000141818
5.56885e-05
0.000143764
5.36355e-05
0.000145133
5.15149e-05
0.000145899
4.93389e-05
0.000146044
4.71195e-05
0.000145562
4.48695e-05
0.000144455
4.26015e-05
0.000142739
4.03282e-05
0.000140439
3.8062e-05
0.000137591
3.58148e-05
0.000134236
3.35977e-05
0.000130426
3.14209e-05
0.000126215
2.92933e-05
0.00012166
2.72227e-05
0.000116818
2.52155e-05
0.000111748
2.3277e-05
0.000106505
2.14112e-05
0.000101141
1.96215e-05
9.57063e-05
1.79102e-05
9.02473e-05
1.62793e-05
8.48065e-05
1.47302e-05
7.94231e-05
1.32639e-05
7.41321e-05
1.18811e-05
6.89648e-05
1.05821e-05
6.39476e-05
9.36687e-06
5.9102e-05
8.23475e-06
5.44441e-05
7.18482e-06
4.99846e-05
6.21575e-06
4.57291e-05
5.32588e-06
4.16782e-05
4.51335e-06
3.78287e-05
3.77606e-06
3.4174e-05
3.11179e-06
3.07052e-05
2.51809e-06
2.74116e-05
1.9923e-06
2.42808e-05
1.53147e-06
2.12985e-05
1.13243e-06
1.84465e-05
7.91872e-07
1.56982e-05
5.06717e-07
1.30096e-05
2.74789e-07
1.02934e-05
9.65734e-08
7.32182e-06
3.19215e-06
3.49971e-07
-2.98486e-07
1.71834e-06
2.02592e-08
3.94108e-06
6.30042e-07
6.93607e-06
1.47673e-06
1.06486e-05
2.60807e-06
1.50045e-05
4.06071e-06
1.99018e-05
5.86307e-06
2.52129e-05
8.03456e-06
3.07908e-05
1.0583e-05
3.6479e-05
1.35035e-05
4.21227e-05
1.67786e-05
4.75799e-05
2.03804e-05
5.27315e-05
2.42734e-05
5.74879e-05
2.84184e-05
6.17921e-05
3.27771e-05
6.56185e-05
3.7316e-05
6.89676e-05
4.20087e-05
7.1859e-05
4.6837e-05
7.43229e-05
5.17903e-05
7.63936e-05
5.68626e-05
7.81035e-05
6.20496e-05
7.94808e-05
6.73456e-05
8.05478e-05
7.27412e-05
8.13222e-05
7.82213e-05
8.18175e-05
8.37652e-05
8.20448e-05
8.9346e-05
8.20137e-05
9.49313e-05
8.17336e-05
0.000100484
8.12137e-05
0.000105963
8.04642e-05
0.000111323
7.94956e-05
0.000116517
7.83197e-05
0.000121495
7.69485e-05
0.000126206
7.53949e-05
0.000130598
7.36721e-05
0.00013462
7.17936e-05
0.000138221
6.9773e-05
0.000141352
6.76242e-05
0.000143967
6.53608e-05
0.000146027
6.29969e-05
0.000147497
6.05466e-05
0.000148349
5.80246e-05
0.000148566
5.54455e-05
0.000148141
5.28246e-05
0.000147076
5.01774e-05
0.000145387
4.75191e-05
0.000143098
4.48649e-05
0.000140245
4.22294e-05
0.000136872
3.96262e-05
0.000133029
3.70678e-05
0.000128773
3.45652e-05
0.000124162
3.21282e-05
0.000119255
2.97646e-05
0.000114112
2.74811e-05
0.000108788
2.52829e-05
0.000103339
2.31741e-05
9.78151e-05
2.11578e-05
9.22636e-05
1.92362e-05
8.67281e-05
1.74112e-05
8.12481e-05
1.5684e-05
7.58594e-05
1.40552e-05
7.05936e-05
1.25252e-05
6.54776e-05
1.10938e-05
6.05334e-05
9.76015e-06
5.57777e-05
8.52304e-06
5.12217e-05
7.38073e-06
4.68714e-05
6.33115e-06
4.27278e-05
5.37194e-06
3.87879e-05
4.50055e-06
3.50454e-05
3.71427e-06
3.14915e-05
3.01021e-06
2.81156e-05
2.38528e-06
2.49057e-05
1.83614e-06
2.18477e-05
1.35928e-06
1.89233e-05
9.51162e-07
1.61063e-05
6.08651e-07
1.33521e-05
3.29782e-07
1.05723e-05
1.15642e-07
7.53596e-06
3.3078e-06
7.40304e-08
-3.72516e-07
5.93545e-07
-4.99256e-07
1.58405e-06
-3.60461e-07
3.10392e-06
-4.31442e-08
5.23424e-06
4.77752e-07
8.0432e-06
1.25175e-06
1.15695e-05
2.33677e-06
1.58117e-05
3.79234e-06
2.07217e-05
5.67299e-06
2.6203e-05
8.02222e-06
3.21146e-05
1.08669e-05
3.8282e-05
1.42131e-05
4.45116e-05
1.80437e-05
5.06104e-05
2.23196e-05
5.64039e-05
2.69836e-05
6.17526e-05
3.19673e-05
6.65614e-05
3.71999e-05
7.07821e-05
4.26163e-05
7.44081e-05
4.81643e-05
7.7464e-05
5.38067e-05
7.99927e-05
5.95209e-05
8.20436e-05
6.52947e-05
8.36642e-05
7.11206e-05
8.4895e-05
7.69905e-05
8.57685e-05
8.28917e-05
8.63099e-05
8.88046e-05
8.65387e-05
9.47024e-05
8.64713e-05
0.000100551
8.6122e-05
0.000106312
8.55045e-05
0.00011194
8.46326e-05
0.000117389
8.35201e-05
0.000122607
8.21817e-05
0.000127544
8.06323e-05
0.000132148
7.88872e-05
0.000136365
7.69619e-05
0.000140146
7.4872e-05
0.000143441
7.26334e-05
0.000146206
7.02617e-05
0.000148399
6.77728e-05
0.000149986
6.51828e-05
0.000150939
6.2508e-05
0.000151241
5.9765e-05
0.000150884
5.69707e-05
0.000149871
5.41423e-05
0.000148215
5.12968e-05
0.000145943
4.84511e-05
0.00014309
4.56215e-05
0.000139701
4.28231e-05
0.000135828
4.00699e-05
0.000131526
3.73746e-05
0.000126857
3.47478e-05
0.000121882
3.21988e-05
0.000116661
2.9735e-05
0.000111252
2.73625e-05
0.000105712
2.50857e-05
0.000100092
2.29082e-05
9.44411e-05
2.08327e-05
8.88036e-05
1.8861e-05
8.32198e-05
1.69945e-05
7.77259e-05
1.5234e-05
7.23541e-05
1.35798e-05
6.71318e-05
1.20317e-05
6.20815e-05
1.05889e-05
5.72205e-05
9.25006e-06
5.25606e-05
8.01332e-06
4.81081e-05
6.8765e-06
4.38646e-05
5.83706e-06
3.98273e-05
4.8923e-06
3.59902e-05
4.03931e-06
3.23445e-05
3.27502e-06
2.88799e-05
2.59614e-06
2.55846e-05
1.99916e-06
2.24447e-05
1.4804e-06
1.94421e-05
1.03622e-06
1.65505e-05
6.63412e-07
1.37249e-05
3.59941e-07
1.08758e-05
1.2676e-07
7.76914e-06
3.43456e-06
2.53078e-08
-3.97824e-07
2.48345e-07
-7.22293e-07
6.82929e-07
-7.95045e-07
1.37534e-06
-7.35554e-07
2.40658e-06
-5.53493e-07
3.87661e-06
-2.18277e-07
5.89258e-06
3.20807e-07
8.55535e-06
1.12957e-06
1.19437e-05
2.28464e-06
1.60983e-05
3.86765e-06
2.10078e-05
5.95743e-06
2.65997e-05
8.62114e-06
3.2739e-05
1.19044e-05
3.92358e-05
1.58228e-05
4.58633e-05
2.03561e-05
5.23826e-05
2.5448e-05
5.85711e-05
3.10114e-05
6.42473e-05
3.69401e-05
6.92882e-05
4.31234e-05
7.36339e-05
4.9461e-05
7.72812e-05
5.58736e-05
8.02679e-05
6.2308e-05
8.26544e-05
6.87341e-05
8.45071e-05
7.51378e-05
8.58875e-05
8.15113e-05
8.68465e-05
8.78456e-05
8.74238e-05
9.41251e-05
8.765e-05
0.000100325
8.75491e-05
0.000106413
8.71413e-05
0.000112348
8.64446e-05
0.000118085
8.54765e-05
0.000123575
8.42541e-05
0.000128767
8.27947e-05
0.000133607
8.11158e-05
0.000138044
7.9235e-05
0.000142027
7.71698e-05
0.000145507
7.4938e-05
0.000148438
7.25571e-05
0.00015078
7.00447e-05
0.000152498
6.74183e-05
0.000153565
6.46959e-05
0.000153964
6.18955e-05
0.000153684
5.90351e-05
0.000152731
5.61332e-05
0.000151117
5.32081e-05
0.000148868
5.02777e-05
0.000146021
4.73595e-05
0.000142619
4.44698e-05
0.000138717
4.16237e-05
0.000134372
3.88348e-05
0.000129646
3.61146e-05
0.000124602
3.34733e-05
0.000119302
3.0919e-05
0.000113806
2.84581e-05
0.000108172
2.60957e-05
0.000102454
2.38357e-05
9.67011e-05
2.16808e-05
9.09585e-05
1.96331e-05
8.52675e-05
1.7694e-05
7.9665e-05
1.58644e-05
7.41837e-05
1.41446e-05
6.88515e-05
1.25345e-05
6.36916e-05
1.10333e-05
5.87217e-05
9.63973e-06
5.39541e-05
8.35203e-06
4.93958e-05
7.16798e-06
4.50487e-05
6.08511e-06
4.09102e-05
5.10065e-06
3.69746e-05
4.21167e-06
3.32335e-05
3.41506e-06
2.96765e-05
2.70745e-06
2.62922e-05
2.08523e-06
2.30669e-05
1.54464e-06
1.99827e-05
1.08188e-06
1.70132e-05
6.93586e-07
1.41132e-05
3.77439e-07
1.11919e-05
1.3394e-07
8.01264e-06
3.5685e-06
7.6181e-09
-4.05442e-07
1.25636e-07
-8.40311e-07
3.56188e-07
-1.0256e-06
7.14428e-07
-1.09379e-06
1.23981e-06
-1.07888e-06
1.99353e-06
-9.71995e-07
3.05826e-06
-7.43925e-07
4.53606e-06
-3.48228e-07
6.54176e-06
2.78942e-07
9.19101e-06
1.21839e-06
1.25831e-05
2.56532e-06
1.67812e-05
4.42304e-06
2.17926e-05
6.8931e-06
2.7553e-05
1.00624e-05
3.39204e-05
1.39887e-05
4.06818e-05
1.86865e-05
4.7574e-05
2.41192e-05
5.43164e-05
3.01977e-05
6.06491e-05
3.67908e-05
6.63666e-05
4.37435e-05
7.13394e-05
5.09009e-05
7.55173e-05
5.81301e-05
7.89173e-05
6.53341e-05
8.16008e-05
7.24542e-05
8.3649e-05
7.94631e-05
8.51434e-05
8.63512e-05
8.61548e-05
9.31137e-05
8.67394e-05
9.97406e-05
8.69401e-05
0.000106212
8.67896e-05
0.000112499
8.63142e-05
0.000118561
8.55367e-05
0.000124353
8.4478e-05
0.000129826
8.31579e-05
0.000134927
8.15964e-05
0.000139606
7.9813e-05
0.00014381
7.78272e-05
0.000147492
7.56584e-05
0.000150607
7.3326e-05
0.000153112
7.0849e-05
0.000154975
6.82466e-05
0.000156168
6.55378e-05
0.000156672
6.27418e-05
0.00015648
5.98779e-05
0.000155595
5.69653e-05
0.00015403
5.40232e-05
0.00015181
5.10706e-05
0.000148973
4.81255e-05
0.000145565
4.52052e-05
0.000141638
4.23256e-05
0.000137252
3.9501e-05
0.000132471
3.67438e-05
0.000127359
3.40646e-05
0.000121981
3.14721e-05
0.000116399
2.89734e-05
0.000110671
2.65736e-05
0.000104854
2.42771e-05
9.89977e-05
2.20866e-05
9.3149e-05
2.00043e-05
8.73497e-05
1.80318e-05
8.16375e-05
1.61699e-05
7.60456e-05
1.44191e-05
7.06024e-05
1.27792e-05
6.53315e-05
1.12497e-05
6.02513e-05
9.82927e-06
5.53746e-05
8.51635e-06
5.07087e-05
7.30885e-06
4.62562e-05
6.20435e-06
4.20147e-05
5.2002e-06
3.79788e-05
4.29352e-06
3.41401e-05
3.48119e-06
3.04889e-05
2.75985e-06
2.70136e-05
2.12583e-06
2.37009e-05
1.57526e-06
2.05332e-05
1.10419e-06
1.74843e-05
7.08997e-07
1.45084e-05
3.87028e-07
1.15139e-05
1.38349e-07
8.26131e-06
3.70685e-06
4.17742e-09
-4.0962e-07
7.81518e-08
-9.14285e-07
2.21822e-07
-1.16927e-06
4.39213e-07
-1.31118e-06
7.48073e-07
-1.38774e-06
1.17881e-06
-1.40273e-06
1.7767e-06
-1.34181e-06
2.60547e-06
-1.177e-06
3.75014e-06
-8.65722e-07
5.31656e-06
-3.48031e-07
7.42579e-06
4.56093e-07
1.02018e-05
1.647e-06
1.37527e-05
3.34223e-06
1.81474e-05
5.66778e-06
2.33911e-05
8.74494e-06
2.94057e-05
1.26719e-05
3.60217e-05
1.75033e-05
4.29872e-05
2.32322e-05
4.99973e-05
2.97807e-05
5.6737e-05
3.70038e-05
6.2929e-05
4.47089e-05
6.83727e-05
5.26864e-05
7.29631e-05
6.07437e-05
7.66858e-05
6.87316e-05
7.95938e-05
7.65551e-05
8.17769e-05
8.41681e-05
8.33337e-05
9.15568e-05
8.43536e-05
9.87207e-05
8.49089e-05
0.000105657
8.50548e-05
0.000112353
8.4833e-05
0.000118783
8.42759e-05
0.00012491
8.34105e-05
0.000130691
8.22609e-05
0.000136077
8.08494e-05
0.000141017
7.91979e-05
0.000145462
7.73277e-05
0.000149363
7.52599e-05
0.000152674
7.30152e-05
0.000155357
7.06141e-05
0.000157376
6.80771e-05
0.000158705
6.54243e-05
0.000159325
6.26758e-05
0.000159229
5.98519e-05
0.000158419
5.69724e-05
0.000156909
5.40574e-05
0.000154725
5.11262e-05
0.000151905
4.81977e-05
0.000148493
4.52897e-05
0.000144546
4.24187e-05
0.000140123
3.95994e-05
0.00013529
3.6845e-05
0.000130114
3.41666e-05
0.00012466
3.15732e-05
0.000118992
2.90723e-05
0.000113172
2.66695e-05
0.000107257
2.43691e-05
0.000101298
2.21741e-05
9.53439e-05
2.00869e-05
8.94369e-05
1.81089e-05
8.36155e-05
1.62411e-05
7.79134e-05
1.4484e-05
7.23595e-05
1.28376e-05
6.6978e-05
1.13012e-05
6.17876e-05
9.87401e-06
5.68018e-05
8.55444e-06
5.20283e-05
7.3406e-06
4.747e-05
6.23026e-06
4.31251e-05
5.22089e-06
3.89881e-05
4.30971e-06
3.50513e-05
3.49369e-06
3.13049e-05
2.76948e-06
2.77378e-05
2.13336e-06
2.4337e-05
1.58135e-06
2.10852e-05
1.10932e-06
1.79563e-05
7.13382e-07
1.49044e-05
3.9056e-07
1.18367e-05
1.40549e-07
8.51133e-06
3.84739e-06
5.49367e-09
-4.15113e-07
6.37733e-08
-9.72565e-07
1.72013e-07
-1.27751e-06
3.29102e-07
-1.46827e-06
5.42847e-07
-1.60148e-06
8.28474e-07
-1.68836e-06
1.20975e-06
-1.72309e-06
1.72176e-06
-1.68902e-06
2.41468e-06
-1.55864e-06
3.35785e-06
-1.2912e-06
4.64287e-06
-8.28929e-07
6.38285e-06
-9.29751e-08
8.70555e-06
1.01953e-06
1.17387e-05
2.63458e-06
1.55885e-05
4.89516e-06
2.0312e-05
7.94846e-06
2.58888e-05
1.19264e-05
3.22008e-05
1.69202e-05
3.90274e-05
2.2954e-05
4.60651e-05
2.99662e-05
5.29693e-05
3.78047e-05
5.94109e-05
4.62448e-05
6.51298e-05
5.50248e-05
6.99693e-05
6.38921e-05
7.38819e-05
7.26425e-05
7.69084e-05
8.11416e-05
7.91423e-05
8.9323e-05
8.0695e-05
9.7168e-05
8.16713e-05
0.000104681
8.21572e-05
0.000111867
8.22186e-05
0.000118721
8.19048e-05
0.000125224
8.12536e-05
0.000131342
8.02954e-05
0.000137035
7.90569e-05
0.000142256
7.75623e-05
0.000146956
7.58348e-05
0.00015109
7.38971e-05
0.000154612
7.17711e-05
0.000157483
6.94786e-05
0.000159669
6.70409e-05
0.000161142
6.44791e-05
0.000161887
6.18142e-05
0.000161894
5.9067e-05
0.000161166
5.62579e-05
0.000159718
5.34073e-05
0.000157576
5.05352e-05
0.000154777
4.76606e-05
0.000151368
4.48019e-05
0.000147404
4.19757e-05
0.000142949
3.91975e-05
0.000138069
3.64806e-05
0.000132831
3.38366e-05
0.000127304
3.12748e-05
0.000121554
2.8803e-05
0.000115644
2.64271e-05
0.000109633
2.41515e-05
0.000103574
2.19795e-05
9.7516e-05
1.99132e-05
9.15032e-05
1.79544e-05
8.55744e-05
1.61039e-05
7.97638e-05
1.43623e-05
7.41011e-05
1.27297e-05
6.86106e-05
1.12057e-05
6.33116e-05
9.78952e-06
5.8218e-05
8.47981e-06
5.3338e-05
7.2749e-06
4.86749e-05
6.17277e-06
4.42272e-05
5.17108e-06
3.99898e-05
4.26721e-06
3.59552e-05
3.45822e-06
3.21139e-05
2.7408e-06
2.84552e-05
2.11121e-06
2.49666e-05
1.56534e-06
2.16311e-05
1.09888e-06
1.84228e-05
7.07696e-07
1.52955e-05
3.88526e-07
1.21559e-05
1.40724e-07
8.75913e-06
3.98812e-06
1.30961e-08
-4.2821e-07
7.25795e-08
-1.03205e-06
1.71716e-07
-1.37664e-06
3.07287e-07
-1.60384e-06
4.82543e-07
-1.77674e-06
7.05461e-07
-1.91128e-06
9.89033e-07
-2.00666e-06
1.3528e-06
-2.05279e-06
1.8254e-06
-2.03124e-06
2.44803e-06
-1.91383e-06
3.27863e-06
-1.65953e-06
4.39606e-06
-1.2104e-06
5.90243e-06
-4.86845e-07
7.92005e-06
6.16962e-07
1.05813e-05
2.23394e-06
1.40099e-05
4.51986e-06
1.82947e-05
7.64155e-06
2.34579e-05
1.1757e-05
2.94253e-05
1.69867e-05
3.60108e-05
2.33806e-05
4.29251e-05
3.08904e-05
4.98126e-05
3.93573e-05
5.63115e-05
4.85259e-05
6.21187e-05
5.80849e-05
6.70376e-05
6.77235e-05
7.09942e-05
7.71851e-05
7.40187e-05
8.62985e-05
7.62073e-05
9.49793e-05
7.76814e-05
0.000103207
7.85573e-05
0.000110991
7.89315e-05
0.000118347
7.88778e-05
0.000125278
7.84508e-05
0.000131769
7.76921e-05
0.000137794
7.66347e-05
0.000143313
7.53068e-05
0.000148284
7.37339e-05
0.000152663
7.19401e-05
0.000156406
6.99486e-05
0.000159474
6.7782e-05
0.000161835
6.54624e-05
0.000163462
6.30117e-05
0.000164338
6.04513e-05
0.000164454
5.78024e-05
0.000163815
5.50859e-05
0.000162435
5.23226e-05
0.000160339
4.95324e-05
0.000157567
4.67349e-05
0.000154165
4.39483e-05
0.000150191
4.11898e-05
0.000145708
3.8475e-05
0.000140783
3.58174e-05
0.000135488
3.3229e-05
0.000129892
3.07194e-05
0.000124063
2.82966e-05
0.000118067
2.59666e-05
0.000111963
2.3734e-05
0.000105806
2.16022e-05
9.96478e-05
1.95735e-05
9.35319e-05
1.76495e-05
8.74984e-05
1.58312e-05
8.15821e-05
1.41192e-05
7.5813e-05
1.25137e-05
7.02161e-05
1.10145e-05
6.48108e-05
9.6208e-06
5.96116e-05
8.33167e-06
5.46272e-05
7.14562e-06
4.9861e-05
6.06086e-06
4.5312e-05
5.07528e-06
4.09754e-05
4.18641e-06
3.6844e-05
3.39146e-06
3.29088e-05
2.68712e-06
2.91595e-05
2.06966e-06
2.55841e-05
1.53484e-06
2.21659e-05
1.07818e-06
1.88794e-05
6.95319e-07
1.56784e-05
3.82753e-07
1.24684e-05
1.39501e-07
9.00238e-06
4.12762e-06
1.61277e-08
-4.44337e-07
7.65953e-08
-1.09252e-06
1.72747e-07
-1.4728e-06
2.99848e-07
-1.73094e-06
4.58675e-07
-1.93557e-06
6.53527e-07
-2.10613e-06
8.9202e-07
-2.24515e-06
1.18584e-06
-2.34661e-06
1.55221e-06
-2.39762e-06
2.01617e-06
-2.37779e-06
2.61369e-06
-2.25705e-06
3.39566e-06
-1.99237e-06
4.43212e-06
-1.52331e-06
5.8159e-06
-7.66819e-07
7.66201e-06
3.87829e-07
1.01004e-05
2.08147e-06
1.32604e-05
4.48156e-06
1.72465e-05
7.77089e-06
2.21059e-05
1.21272e-05
2.77945e-05
1.7692e-05
3.41527e-05
2.45322e-05
4.09055e-05
3.26045e-05
4.76942e-05
4.17372e-05
5.41379e-05
5.16413e-05
5.99059e-05
6.19555e-05
6.47763e-05
7.23146e-05
6.86592e-05
8.24156e-05
7.15808e-05
9.20577e-05
7.36421e-05
0.000101145
7.4973e-05
0.00010966
7.56987e-05
0.000117621
7.5923e-05
0.000125053
7.57247e-05
0.000131967
7.5162e-05
0.000138356
7.42786e-05
0.000144197
7.3109e-05
0.000149454
7.16825e-05
0.000154089
7.00252e-05
0.000158063
6.81617e-05
0.000161338
6.61155e-05
0.000163881
6.39094e-05
0.000165668
6.15657e-05
0.000166681
5.91064e-05
0.000166914
5.6553e-05
0.000166368
5.39268e-05
0.000165061
5.12486e-05
0.000163018
4.85386e-05
0.000160277
4.58166e-05
0.000156887
4.31009e-05
0.000152907
4.0409e-05
0.0001484
3.77565e-05
0.000143436
3.51575e-05
0.000138087
3.26239e-05
0.000132426
3.01658e-05
0.000126522
2.77912e-05
0.000120441
2.55066e-05
0.000114247
2.33166e-05
0.000107996
2.12246e-05
0.00010174
1.92331e-05
9.55234e-05
1.73437e-05
8.93878e-05
1.55575e-05
8.33684e-05
1.3875e-05
7.74955e-05
1.22966e-05
7.17945e-05
1.08221e-05
6.62853e-05
9.45112e-06
6.09827e-05
8.18268e-06
5.58956e-05
7.01563e-06
5.1028e-05
5.94839e-06
4.63792e-05
4.97906e-06
4.19448e-05
4.10536e-06
3.77177e-05
3.32458e-06
3.36896e-05
2.63349e-06
2.98506e-05
2.02826e-06
2.61893e-05
1.50454e-06
2.26896e-05
1.05769e-06
1.93263e-05
6.83127e-07
1.6053e-05
3.77104e-07
1.27745e-05
1.3834e-07
9.24114e-06
4.26596e-06
1.88594e-08
-4.63197e-07
8.24189e-08
-1.15608e-06
1.80107e-07
-1.57048e-06
3.05806e-07
-1.85664e-06
4.58572e-07
-2.08833e-06
6.40455e-07
-2.28801e-06
8.55994e-07
-2.46069e-06
1.11255e-06
-2.60316e-06
1.42117e-06
-2.70624e-06
1.79802e-06
-2.75463e-06
2.26646e-06
-2.72548e-06
2.85996e-06
-2.58587e-06
3.62583e-06
-2.28918e-06
4.62941e-06
-1.7704e-06
5.95777e-06
-9.40529e-07
7.72034e-06
3.18905e-07
1.00431e-05
2.15879e-06
1.30551e-05
4.75894e-06
1.68658e-05
8.31647e-06
2.15337e-05
1.30242e-05
2.70296e-05
1.90363e-05
3.32083e-05
2.64257e-05
3.98028e-05
3.51427e-05
4.64524e-05
4.49917e-05
5.27653e-05
5.56426e-05
5.83968e-05
6.66832e-05
6.31143e-05
7.76981e-05
6.68248e-05
8.83472e-05
6.95587e-05
9.84115e-05
7.14247e-05
0.000107794
7.25607e-05
0.000116485
7.30981e-05
0.000124516
7.31445e-05
0.000131921
7.27812e-05
0.00013872
7.20678e-05
0.00014491
7.10489e-05
0.000150473
6.97596e-05
0.000155379
6.82295e-05
0.000159593
6.6485e-05
0.000163082
6.45508e-05
0.000165816
6.24505e-05
0.000167769
6.02068e-05
0.000168925
5.78421e-05
0.000169278
5.53783e-05
0.000168832
5.28367e-05
0.000167602
5.02385e-05
0.000165616
4.76039e-05
0.000162911
4.49528e-05
0.000159538
4.23039e-05
0.000155556
3.96745e-05
0.000151029
3.70807e-05
0.00014603
3.45367e-05
0.000140631
3.20546e-05
0.000134908
2.96448e-05
0.000128931
2.73156e-05
0.000122771
2.50735e-05
0.000116489
2.29233e-05
0.000110146
2.08687e-05
0.000103794
1.89121e-05
9.748e-05
1.70552e-05
9.12447e-05
1.52991e-05
8.51245e-05
1.36444e-05
7.91502e-05
1.20915e-05
7.33474e-05
1.06404e-05
6.77365e-05
9.29067e-06
6.23323e-05
8.04177e-06
5.71445e-05
6.89267e-06
5.21771e-05
5.842e-06
4.74299e-05
4.88808e-06
4.28987e-05
4.02878e-06
3.8577e-05
3.26148e-06
3.44569e-05
2.58295e-06
3.05292e-05
1.98933e-06
2.67829e-05
1.47615e-06
2.32028e-05
1.03855e-06
1.97639e-05
6.71764e-07
1.64197e-05
3.7184e-07
1.30744e-05
1.37247e-07
9.47574e-06
4.40321e-06
2.61395e-08
-4.89336e-07
1.00762e-07
-1.2307e-06
2.09223e-07
-1.67895e-06
3.43949e-07
-1.99137e-06
5.02624e-07
-2.24701e-06
6.85644e-07
-2.47103e-06
8.95413e-07
-2.67046e-06
1.13642e-06
-2.84417e-06
1.41579e-06
-2.98561e-06
1.7442e-06
-3.08304e-06
2.13737e-06
-3.11865e-06
2.61808e-06
-3.06657e-06
3.21898e-06
-2.89009e-06
3.98621e-06
-2.53763e-06
4.98341e-06
-1.93773e-06
6.29532e-06
-9.92999e-07
8.02857e-06
4.2554e-07
1.03062e-05
2.48132e-06
1.32548e-05
5.36782e-06
1.69833e-05
9.29569e-06
2.1551e-05
1.44686e-05
2.69312e-05
2.10455e-05
3.29807e-05
2.90933e-05
3.9431e-05
3.85413e-05
4.59172e-05
4.91565e-05
5.20415e-05
6.05589e-05
5.74566e-05
7.2283e-05
6.19336e-05
8.38702e-05
6.53891e-05
9.4956e-05
6.78656e-05
0.000105318
6.94824e-05
0.000114868
7.03846e-05
0.000123614
7.07066e-05
0.000131599
7.05569e-05
0.000138869
7.00165e-05
0.00014545
6.91446e-05
0.000151345
6.79855e-05
0.000156538
6.6574e-05
0.000161005
6.49396e-05
0.000164717
6.31087e-05
0.000167646
6.11058e-05
0.000169771
5.89543e-05
0.000171076
5.66769e-05
0.000171556
5.42958e-05
0.000171213
5.18324e-05
0.000170066
4.9308e-05
0.00016814
4.67432e-05
0.000165476
4.41577e-05
0.000162124
4.15704e-05
0.000158143
3.89988e-05
0.000153601
3.64592e-05
0.000148569
3.39658e-05
0.000143125
3.15311e-05
0.000137342
2.91657e-05
0.000131297
2.68781e-05
0.000125058
2.4675e-05
0.000118693
2.25615e-05
0.00011226
2.05411e-05
0.000105815
1.86165e-05
9.94045e-05
1.67895e-05
9.30718e-05
1.5061e-05
8.68529e-05
1.34318e-05
8.07793e-05
1.19024e-05
7.48768e-05
1.04727e-05
6.91661e-05
9.14266e-06
6.36624e-05
7.91174e-06
5.83754e-05
6.77916e-06
5.33097e-05
5.74379e-06
4.84652e-05
4.80408e-06
4.38384e-05
3.95809e-06
3.9423e-05
3.20327e-06
3.52117e-05
2.53641e-06
3.1196e-05
1.95355e-06
2.73658e-05
1.45009e-06
2.37063e-05
1.02102e-06
2.01929e-05
6.61375e-07
1.67794e-05
3.67029e-07
1.33687e-05
1.36251e-07
9.70651e-06
4.53946e-06
3.35935e-08
-5.2293e-07
1.2064e-07
-1.31774e-06
2.42484e-07
-1.80079e-06
3.90321e-07
-2.13921e-06
5.60893e-07
-2.41758e-06
7.53459e-07
-2.6636e-06
9.68918e-07
-2.88592e-06
1.20971e-06
-3.08496e-06
1.48014e-06
-3.25604e-06
1.78707e-06
-3.38997e-06
2.14091e-06
-3.47249e-06
2.55721e-06
-3.48287e-06
3.05871e-06
-3.39159e-06
3.67823e-06
-3.15715e-06
4.46219e-06
-2.72169e-06
5.47458e-06
-2.00538e-06
6.80024e-06
-9.00124e-07
8.54529e-06
7.36266e-07
1.0831e-05
3.08207e-06
1.37811e-05
6.34559e-06
1.74998e-05
1.07499e-05
2.20403e-05
1.6505e-05
2.73679e-05
2.37656e-05
3.333e-05
3.25792e-05
3.96483e-05
4.28382e-05
4.59499e-05
5.42574e-05
5.18355e-05
6.63973e-05
5.69659e-05
7.87398e-05
6.11289e-05
9.0793e-05
6.42624e-05
0.000102184
6.64275e-05
0.000112703
6.7756e-05
0.000122285
6.8398e-05
0.000130957
6.84881e-05
0.000138779
6.81326e-05
0.000145806
6.741e-05
0.000152067
6.63775e-05
0.00015757
6.5078e-05
0.000162304
6.35457e-05
0.000166249
6.18096e-05
0.000169383
5.98956e-05
0.000171685
5.78279e-05
0.000173144
5.56299e-05
0.000173754
5.33237e-05
0.00017352
5.09313e-05
0.000172458
4.8474e-05
0.000170598
4.59723e-05
0.000167978
4.34462e-05
0.00016465
4.09145e-05
0.000160675