/*--------------------------------*- C++ -*----------------------------------*\
  =========                 |
  \\      /  F ield         | OpenFOAM: The Open Source CFD Toolbox
   \\    /   O peration     | Website:  https://openfoam.org
    \\  /    A nd           | Version:  7
     \\/     M anipulation  |
\*---------------------------------------------------------------------------*/
FoamFile
{
    version     2.0;
    format      ascii;
    class       volVectorField;
    location    "20000";
    object      U;
}
// * * * * * * * * * * * * * * * * * * * * * * * * * * * * * * * * * * * * * //

dimensions      [0 1 -1 0 0 0 0];

internalField   nonuniform List<vector> 
10981
(
(0.00706362 -2.62032e-05 7.88377e-26)
(0.0133425 -1.71523e-05 0)
(0.0165847 5.22936e-05 0)
(0.0187777 0.000151869 0)
(0.0203637 0.000272027 0)
(0.0215434 0.000401717 0)
(0.0224416 0.000534355 0)
(0.0231422 0.000666712 0)
(0.0237023 0.000797295 0)
(0.0241611 0.000925393 6.36649e-25)
(0.0245455 0.0010506 -6.93051e-25)
(0.0248743 0.00117253 0)
(0.025161 0.00129074 0)
(0.0254151 0.00140462 1.75259e-24)
(0.025644 0.00151341 0)
(0.0258531 0.0016162 0)
(0.0260468 0.00171201 0)
(0.0262285 0.0017998 0)
(0.0264012 0.00187856 0)
(0.0265676 0.00194736 0)
(0.0267297 0.00200539 0)
(0.0268898 0.002052 0)
(0.0270496 0.00208677 0)
(0.0272109 0.00210952 0)
(0.0273752 0.00212029 0)
(0.0275439 0.00211937 0)
(0.0277181 0.00210729 -1.47864e-23)
(0.0278987 0.00208477 0)
(0.0280865 0.0020527 -1.60854e-23)
(0.0282818 0.00201213 -3.35055e-23)
(0.0284846 0.00196419 0)
(0.0286946 0.00191009 0)
(0.0289111 0.00185102 -3.77296e-23)
(0.029133 0.00178817 0)
(0.0293586 0.00172265 0)
(0.0295859 0.00165545 0)
(0.0298126 0.00158746 0)
(0.0300359 0.00151939 0)
(0.0302529 0.00145182 -4.77108e-23)
(0.0304607 0.00138517 0)
(0.0306562 0.00131973 -5.16331e-23)
(0.0308366 0.00125568 0)
(0.0309993 0.00119312 -5.59458e-23)
(0.0311423 0.0011321 -5.82888e-23)
(0.0312636 0.00107262 6.07912e-23)
(0.0313619 0.00101468 6.34901e-23)
(0.0314362 0.000958273 -6.64324e-23)
(0.0314855 0.000903392 0)
(0.0315094 0.000850035 0)
(0.0315071 0.000798197 0)
(0.031478 0.00074787 0)
(0.0314213 0.000699036 0)
(0.0313357 0.000651665 0)
(0.0312201 0.000605714 0)
(0.0310729 0.000561129 0)
(0.0308925 0.000517851 0)
(0.0306773 0.000475825 0)
(0.0304261 0.000435008 -3.34453e-23)
(0.0301379 0.00039538 0)
(0.029812 0.000356958 0)
(0.0294481 0.000319797 4.18467e-23)
(0.0290461 0.000283989 0)
(0.0286056 0.000249666 0)
(0.0281256 0.000216987 0)
(0.0276041 0.000186133 0)
(0.0270377 0.000157293 0)
(0.026421 0.000130658 0)
(0.0257469 0.000106405 3.47444e-23)
(0.0250054 8.46903e-05 0)
(0.0241843 6.56312e-05 0)
(0.0232679 4.92913e-05 0)
(0.0222367 3.5664e-05 2.43231e-23)
(0.0210656 2.466e-05 -2.68541e-23)
(0.019721 1.61049e-05 0)
(0.0181526 9.7496e-06 1.70754e-23)
(0.0162772 5.29353e-06 0)
(0.0139308 2.40434e-06 2.51952e-23)
(0.0106945 6.68848e-07 0)
(0.00498696 1.0284e-07 0)
(0.00766393 -0.000234794 -7.96155e-26)
(0.0136587 -0.000409858 -3.19004e-25)
(0.0165381 -0.000470948 0)
(0.0184597 -0.000476438 0)
(0.0198821 -0.00044193 0)
(0.0209793 -0.000379336 4.80756e-25)
(0.021846 -0.000296644 3.62663e-22)
(0.0225443 -0.000199315 7.71696e-23)
(0.0231178 -9.12443e-05 -3.40923e-22)
(0.0235984 2.4712e-05 9.77873e-25)
(0.0240093 0.000146386 2.52245e-24)
(0.0243676 0.000272024 0)
(0.024686 0.000400089 2.58849e-22)
(0.0249738 0.000529133 -2.44151e-22)
(0.0252381 0.000657717 0)
(0.0254841 0.000784375 0)
(0.0257158 0.000907609 -3.19249e-22)
(0.0259362 0.00102591 3.17178e-22)
(0.0261478 0.00113777 3.41117e-22)
(0.0263526 0.00124177 -3.52577e-22)
(0.0265522 0.00133661 0)
(0.0267481 0.00142112 0)
(0.0269417 0.00149439 2.57338e-23)
(0.0271342 0.00155572 -4.37982e-22)
(0.027327 0.00160471 4.5915e-22)
(0.0275212 0.00164123 2.88993e-23)
(0.0277178 0.00166542 1.50787e-23)
(0.0279178 0.00167769 -4.78832e-22)
(0.0281219 0.0016787 4.91483e-22)
(0.0283306 0.0016693 -5.1409e-22)
(0.0285443 0.00165049 4.96712e-23)
(0.0287627 0.00162341 5.6939e-22)
(0.0289855 0.00158924 -5.7186e-22)
(0.0292117 0.0015492 1.24655e-21)
(0.0294402 0.00150444 -7.18911e-22)
(0.0296691 0.00145609 0)
(0.0298963 0.00140513 0)
(0.0301194 0.00135244 -8.22252e-22)
(0.0303358 0.00129871 1.55422e-21)
(0.0305426 0.00124454 -7.76576e-22)
(0.030737 0.00119036 5.1278e-23)
(0.0309164 0.00113649 -1.05305e-22)
(0.0310782 0.00108314 4.99574e-22)
(0.0312203 0.00103049 -2.84839e-22)
(0.031341 0.000978638 -5.42275e-22)
(0.0314389 0.000927665 -6.78658e-23)
(0.0315129 0.000877641 5.87482e-22)
(0.0315622 0.000828625 -6.88391e-22)
(0.0315862 0.00078067 1.15598e-21)
(0.0315842 0.000733823 3.98349e-24)
(0.0315556 0.000688116 3.79646e-24)
(0.0314995 0.000643569 -7.70373e-22)
(0.0314149 0.000600185 3.67287e-22)
(0.0313004 0.00055795 1.65113e-24)
(0.0311545 0.000516834 -8.42991e-22)
(0.0309757 0.000476803 4.5307e-22)
(0.0307625 0.000437818 -3.6828e-22)
(0.0305134 0.000399858 4.94877e-22)
(0.0302275 0.000362922 4.99579e-22)
(0.0299039 0.000327042 -6.13957e-22)
(0.0295423 0.000292288 -4.15795e-23)
(0.0291424 0.000258771 -8.86916e-23)
(0.0287036 0.000226633 0)
(0.0282247 0.000196048 0)
(0.0277035 0.000167205 -4.427e-22)
(0.0271363 0.000140302 9.51863e-22)
(0.0265177 0.000115535 -5.76218e-22)
(0.0258403 9.30846e-05 -3.11387e-22)
(0.0250941 7.31068e-05 -3.73904e-23)
(0.0242666 5.5716e-05 6.09038e-22)
(0.0233423 4.09697e-05 -4.3931e-23)
(0.0223018 2.88532e-05 -2.1805e-22)
(0.0211206 1.92689e-05 -1.86991e-22)
(0.0197652 1.20352e-05 0)
(0.0181861 6.89567e-06 -1.19097e-22)
(0.0163004 3.53156e-06 3.19451e-22)
(0.0139449 1.5575e-06 -1.25282e-22)
(0.0107012 4.90655e-07 -1.45137e-22)
(0.00498831 3.71561e-07 0)
(0.00668089 -0.000937363 1.47697e-20)
(0.0127376 -0.00163408 -9.89945e-22)
(0.0156654 -0.001861 -2.86584e-21)
(0.0175563 -0.00189867 6.64233e-22)
(0.0189423 -0.00184603 3.5771e-23)
(0.0200207 -0.00174428 -2.35072e-24)
(0.0208903 -0.0016114 1.45265e-21)
(0.0216095 -0.00145766 -1.25514e-21)
(0.0222172 -0.00129017 -6.49672e-25)
(0.0227404 -0.00111403 2.9502e-24)
(0.0231992 -0.000932948 -1.8915e-24)
(0.0236083 -0.000749748 0)
(0.023979 -0.000566628 -2.44875e-21)
(0.0243198 -0.000385383 2.28434e-21)
(0.024637 -0.000207541 -2.65603e-21)
(0.0249355 -3.44604e-05 2.51364e-21)
(0.025219 0.000132612 -1.13766e-23)
(0.0254902 0.000292498 9.11232e-25)
(0.0257514 0.000444077 1.12072e-23)
(0.0260041 0.000586277 3.16262e-21)
(0.0262496 0.000718097 -3.02799e-21)
(0.0264892 0.000838624 0)
(0.0267239 0.000947072 5.86454e-25)
(0.0269547 0.00104281 0)
(0.0271826 0.00112541 -2.80155e-23)
(0.0274087 0.00119466 2.91913e-23)
(0.0276339 0.00125056 -1.95777e-21)
(0.0278592 0.00129339 3.86294e-21)
(0.0280853 0.00132364 -1.97075e-21)
(0.028313 0.00134202 0)
(0.0285426 0.00134941 -6.85677e-23)
(0.0287744 0.00134685 -2.36025e-21)
(0.029008 0.00133549 2.29754e-21)
(0.029243 0.00131651 -7.50127e-23)
(0.0294783 0.00129111 7.87568e-23)
(0.0297125 0.00126044 0)
(0.0299439 0.00122558 -2.63697e-21)
(0.0301701 0.0011875 3.07024e-23)
(0.0303889 0.00114704 2.87469e-21)
(0.0305977 0.00110488 -3.04298e-21)
(0.0307937 0.00106159 6.27539e-21)
(0.0309745 0.0010176 -3.3418e-21)
(0.0311377 0.000973261 3.52939e-21)
(0.0312812 0.000928816 -3.745e-21)
(0.0314033 0.000884466 -1.1499e-22)
(0.0315026 0.000840372 -1.82251e-21)
(0.031578 0.000796668 -1.8563e-23)
(0.0316289 0.000753472 2.24817e-21)
(0.0316544 0.000710889 -2.24292e-21)
(0.0316541 0.000669009 2.49761e-21)
(0.0316272 0.000627907 1.5547e-22)
(0.0315729 0.000587638 8.34495e-23)
(0.0314903 0.000548237 -2.6669e-21)
(0.031378 0.00050972 3.03177e-21)
(0.0312345 0.000472084 0)
(0.0310583 0.000435316 0)
(0.0308479 0.000399402 -2.37211e-22)
(0.0306019 0.000364337 -2.11506e-21)
(0.030319 0.000330138 4.3583e-21)
(0.0299985 0.000296854 -2.53582e-21)
(0.0296399 0.000264568 0)
(0.0292426 0.000233405 8.71778e-23)
(0.0288059 0.000203523 -9.30981e-23)
(0.0283284 0.000175106 0)
(0.0278078 0.000148356 0)
(0.0272402 0.000123483 1.80935e-21)
(0.02662 0.00010069 -1.94945e-21)
(0.0259395 8.01651e-05 0)
(0.0251887 6.20662e-05 -1.14139e-21)
(0.0243551 4.65052e-05 2.67925e-21)
(0.0234232 3.35314e-05 -1.39475e-21)
(0.0223739 2.31159e-05 -4.75902e-23)
(0.0211827 1.51406e-05 0)
(0.0198169 9.39552e-06 0)
(0.0182274 5.58458e-06 -1.00398e-22)
(0.016332 3.32833e-06 5.91165e-22)
(0.0139685 2.14553e-06 -7.41331e-22)
(0.0107199 1.47155e-06 2.86668e-22)
(0.00500227 1.2379e-06 -4.0082e-22)
(0.00369892 -0.00128243 0)
(0.0088892 -0.00256456 -1.0219e-20)
(0.0119757 -0.00313524 1.40393e-20)
(0.0141791 -0.00334293 -5.66466e-21)
(0.0159016 -0.00334659 5.37952e-24)
(0.0173015 -0.00323361 6.85089e-21)
(0.0184652 -0.00304957 -1.25721e-20)
(0.0194489 -0.00282178 -8.82129e-22)
(0.0202921 -0.00256906 5.93227e-21)
(0.0210244 -0.00230464 6.6548e-21)
(0.0216682 -0.00203755 -5.99329e-21)
(0.0222415 -0.00177373 -6.58403e-21)
(0.022758 -0.00151694 6.04286e-21)
(0.0232288 -0.00126937 0)
(0.0236624 -0.00103227 -6.55808e-21)
(0.0240655 -0.000806259 6.1488e-21)
(0.0244435 -0.00059168 1.1837e-23)
(0.0248003 -0.000388764 -6.63715e-21)
(0.0251393 -0.000197745 6.31291e-21)
(0.025463 -1.89083e-05 -2.65762e-23)
(0.0257735 0.000147401 1.18558e-24)
(0.0260725 0.000300796 0)
(0.0263616 0.00044088 -2.67636e-23)
(0.0266419 0.000567287 -2.78676e-23)
(0.0269149 0.000679728 0)
(0.0271817 0.000778031 2.88734e-25)
(0.0274435 0.000862182 0)
(0.0277013 0.000932352 1.21094e-22)
(0.0279562 0.000988913 4.04794e-21)
(0.028209 0.00103244 -3.95174e-21)
(0.0284605 0.0010637 4.27202e-21)
(0.0287111 0.00108363 2.01161e-22)
(0.0289608 0.00109329 -4.33295e-21)
(0.0292095 0.00109383 4.67734e-21)
(0.0294564 0.00108644 -4.7105e-21)
(0.0297005 0.0010723 4.84562e-21)
(0.0299404 0.00105254 -1.01638e-20)
(0.030174 0.00102822 -1.09592e-22)
(0.0303994 0.00100027 1.10406e-20)
(0.0306141 0.000969486 -5.51043e-21)
(0.0308156 0.000936541 5.8354e-21)
(0.0310015 0.000901981 -5.9776e-21)
(0.0311696 0.000866242 6.42555e-21)
(0.0313179 0.000829668 -6.61502e-21)
(0.0314446 0.000792539 -3.22201e-21)
(0.0315484 0.000755082 3.5596e-21)
(0.0316282 0.000717492 -1.20407e-22)
(0.0316833 0.00067994 -4.08356e-21)
(0.031713 0.000642576 4.26494e-21)
(0.0317167 0.000605532 4.39608e-21)
(0.0316938 0.00056892 -4.92849e-21)
(0.0316435 0.000532828 -5.27184e-21)
(0.0315649 0.000497324 5.25965e-21)
(0.0314568 0.000462451 0)
(0.0313176 0.000428232 0)
(0.031146 0.000394679 1.0519e-22)
(0.0309402 0.000361798 1.14542e-22)
(0.0306989 0.000329602 -3.82677e-21)
(0.0304208 0.000298122 4.39507e-21)
(0.0301049 0.000267421 4.61812e-21)
(0.0297506 0.000237594 -9.96586e-21)
(0.0293572 0.000208778 -9.201e-23)
(0.0289238 0.000181142 5.98043e-21)
(0.0284488 0.000154884 -3.13062e-21)
(0.0279297 0.000130218 -3.26607e-24)
(0.0273625 0.000107364 3.58371e-21)
(0.0267414 8.65366e-05 -6.12388e-23)
(0.0260587 6.79309e-05 4.19293e-21)
(0.0253042 5.17073e-05 -4.61738e-21)
(0.0244654 3.79743e-05 -6.19289e-25)
(0.0235267 2.67706e-05 2.78475e-21)
(0.0224692 1.80478e-05 -2.95913e-21)
(0.0212689 1.1658e-05 0)
(0.0198933 7.3507e-06 0)
(0.0182942 4.77824e-06 -2.04543e-21)
(0.01639 3.50039e-06 1.28085e-21)
(0.0140198 2.96523e-06 1.50908e-21)
(0.0107682 2.56033e-06 5.65529e-22)
(0.00504116 2.16696e-06 -8.94931e-22)
(0.000825835 -0.000653495 7.5345e-20)
(0.00383946 -0.00180205 -4.73406e-20)
(0.00629267 -0.00263135 0)
(0.00843404 -0.00317706 2.05371e-20)
(0.010397 -0.00350299 -1.6178e-20)
(0.0122008 -0.00366291 1.45429e-20)
(0.0138468 -0.00369124 -1.24009e-20)
(0.0153368 -0.00361355 -4.58448e-24)
(0.0166753 -0.00345321 -8.75817e-24)
(0.0178697 -0.00323234 0)
(0.0189307 -0.00297085 -8.12368e-24)
(0.0198715 -0.00268579 -1.01872e-23)
(0.0207061 -0.0023909 -1.92695e-24)
(0.0214492 -0.00209651 0)
(0.0221147 -0.00180977 2.31289e-23)
(0.022715 -0.00153509 7.90225e-21)
(0.0232614 -0.00127484 -1.50948e-20)
(0.0237629 -0.00102994 7.23069e-21)
(0.0242271 -0.000800542 1.25906e-23)
(0.02466 -0.000586419 -7.3134e-21)
(0.0250665 -0.000387292 6.98246e-21)
(0.0254504 -0.000202968 0)
(0.0258149 -3.33809e-05 7.25769e-21)
(0.0261625 0.000121434 -7.01847e-21)
(0.0264955 0.000261397 -7.35362e-21)
(0.0268159 0.000386442 -3.27959e-22)
(0.0271254 0.000496578 7.3009e-21)
(0.0274257 0.000591935 -1.18352e-22)
(0.0277183 0.000672798 6.02094e-23)
(0.0280043 0.000739633 -6.18188e-23)
(0.028285 0.000793086 6.28573e-23)
(0.0285612 0.000833983 0)
(0.0288333 0.0008633 -7.01004e-25)
(0.0291015 0.000882131 8.96328e-21)
(0.0293656 0.000891646 -8.94705e-21)
(0.0296248 0.000893041 1.47417e-22)
(0.0298781 0.000887495 -1.52714e-22)
(0.030124 0.000876124 1.01777e-20)
(0.0303605 0.000859951 -1.03638e-20)
(0.0305856 0.00083988 -5.66313e-21)
(0.030797 0.000816688 5.79933e-21)
(0.0309923 0.000791022 9.18574e-23)
(0.0311695 0.000763415 0)
(0.0313264 0.000734298 1.00152e-22)
(0.0314615 0.000704022 -2.11639e-22)
(0.0315733 0.000672882 0)
(0.0316608 0.000641126 1.16215e-22)
(0.0317233 0.000608972 7.81361e-21)
(0.03176 0.000576612 -8.16525e-21)
(0.0317705 0.000544215 0)
(0.0317543 0.000511926 -4.60898e-21)
(0.0317105 0.000479866 5.02826e-21)
(0.0316384 0.00044813 0)
(0.0315368 0.000416788 8.71175e-23)
(0.0314043 0.000385888 0)
(0.0312393 0.000355462 -8.16925e-25)
(0.0310404 0.000325534 -7.0262e-21)
(0.0308059 0.000296133 7.57977e-21)
(0.0305346 0.000267304 -1.27913e-22)
(0.0302252 0.000239117 4.66182e-21)
(0.029877 0.000211679 8.37466e-23)
(0.0294891 0.000185135 -5.11967e-21)
(0.0290604 0.000159665 -6.75584e-25)
(0.0285892 0.000135477 6.08185e-21)
(0.0280729 0.000112799 -6.6156e-21)
(0.0275074 9.18647e-05 1.11381e-22)
(0.0268867 7.2902e-05 4.56558e-25)
(0.026203 5.61161e-05 6.53423e-23)
(0.025446 4.16735e-05 -4.59669e-21)
(0.0246032 2.9682e-05 -7.9127e-23)
(0.0236589 2.017e-05 -1.51833e-24)
(0.0225945 1.30676e-05 5.91098e-21)
(0.0213861 8.19337e-06 0)
(0.0200018 5.25208e-06 3.70924e-21)
(0.0183938 3.84687e-06 -4.12643e-21)
(0.0164817 3.4922e-06 -2.44666e-21)
(0.0141055 3.58865e-06 1.53487e-21)
(0.0108515 3.48067e-06 2.2998e-21)
(0.00510758 3.02197e-06 9.93547e-23)
(-0.000416738 9.77901e-05 -9.49812e-24)
(0.00058483 -0.000289966 0)
(0.00184595 -0.000877177 3.55541e-24)
(0.00323845 -0.00143751 0)
(0.00477556 -0.00194119 5.6714e-24)
(0.00642288 -0.00237692 6.36182e-24)
(0.0081355 -0.00273089 -8.62694e-24)
(0.00986801 -0.0029902 0)
(0.0115773 -0.00314792 1.72831e-20)
(0.0132251 -0.00320457 2.02343e-22)
(0.0147807 -0.00316761 2.03424e-22)
(0.0162219 -0.00305002 2.10021e-22)
(0.0175359 -0.00286841 -1.22349e-20)
(0.0187187 -0.0026408 -6.11854e-24)
(0.0197738 -0.00238461 -9.68944e-24)
(0.0207108 -0.00211496 0)
(0.0215425 -0.00184369 0)
(0.0222834 -0.00157909 4.7087e-24)
(0.0229479 -0.00132622 1.62431e-23)
(0.0235488 -0.00108766 0)
(0.0240974 -0.000864386 0)
(0.0246026 -0.000656522 7.98417e-21)
(0.0250716 -0.000463896 -7.5914e-21)
(0.0255101 -0.000286341 7.59442e-24)
(0.0259226 -0.000123797 -4.4299e-23)
(0.0263128 2.37061e-05 -7.66285e-21)
(0.0266839 0.000156119 7.45615e-21)
(0.0270385 0.000273452 4.44384e-23)
(0.0273789 0.000375838 -7.85995e-21)
(0.0277072 0.000463575 1.55779e-20)
(0.028025 0.000537147 1.69389e-22)
(0.0283338 0.000597229 -7.97406e-21)
(0.0286347 0.000644674 8.31213e-21)
(0.0289283 0.000680483 -1.70031e-20)
(0.0292148 0.000705771 1.75029e-20)
(0.0294941 0.000721717 -8.92471e-21)
(0.0297654 0.000729517 9.47977e-21)
(0.0300277 0.000730337 2.01531e-22)
(0.0302793 0.000725272 -9.95203e-21)
(0.0305186 0.000715315 4.06392e-23)
(0.0307433 0.000701337 0)
(0.0309515 0.000684084 -8.91641e-23)
(0.0311409 0.000664178 5.96853e-21)
(0.0313096 0.000642133 -6.25106e-21)
(0.0314559 0.000618373 6.52248e-21)
(0.0315786 0.000593251 -6.75768e-21)
(0.0316764 0.000567069 0)
(0.0317487 0.000540088 0)
(0.0317948 0.000512537 -7.94319e-21)
(0.0318143 0.000484619 8.33289e-21)
(0.0318067 0.00045651 -8.90014e-21)
(0.0317714 0.000428358 9.37617e-21)
(0.0317075 0.000400285 0)
(0.0316141 0.000372384 5.33318e-21)
(0.0314899 0.000344723 -5.80154e-21)
(0.0313332 0.000317353 -7.39695e-23)
(0.0311426 0.000290314 0)
(0.0309165 0.000263647 -2.85804e-23)
(0.0306533 0.000237405 8.09113e-21)
(0.0303519 0.000211669 -8.68265e-21)
(0.0300111 0.000186551 9.28119e-21)
(0.02963 0.000162202 -1.00947e-20)
(0.0292072 0.00013881 -5.56894e-21)
(0.028741 0.000116595 5.92646e-21)
(0.0282286 9.57943e-05 -6.37124e-21)
(0.0276658 7.66553e-05 1.39013e-20)
(0.0270465 5.94177e-05 -7.47296e-21)
(0.0263628 4.42975e-05 4.09114e-21)
(0.0256044 3.14684e-05 -4.37768e-21)
(0.0247585 2.10396e-05 0)
(0.0238097 1.30331e-05 -2.06522e-23)
(0.0227393 7.36334e-06 5.82776e-21)
(0.0215237 3.82498e-06 -6.44417e-21)
(0.0201314 2.09456e-06 -5.65071e-23)
(0.0185153 1.7517e-06 -3.21771e-23)
(0.0165956 2.301e-06 -2.41381e-21)
(0.0142133 3.12789e-06 1.51361e-21)
(0.0109569 3.53881e-06 2.131e-21)
(0.00519127 3.40426e-06 0)
(-0.000586166 0.000380595 3.1188e-23)
(-0.000530819 0.000525158 -1.5211e-23)
(-0.000106544 0.000313584 1.29843e-19)
(0.000515062 8.6085e-06 -2.13347e-22)
(0.00133693 -0.000346366 -7.24746e-20)
(0.00236392 -0.000736692 3.42267e-24)
(0.00359051 -0.00114495 5.52286e-20)
(0.00499899 -0.00154814 -4.98877e-20)
(0.00655908 -0.00192086 1.17957e-23)
(0.00822986 -0.00223889 4.20894e-20)
(0.00996314 -0.00248239 -7.75132e-20)
(0.0117079 -0.00263833 3.57534e-20)
(0.0134151 -0.002702 8.56e-24)
(0.0150419 -0.00267718 -1.54384e-20)
(0.0165556 -0.00257496 -8.12669e-23)
(0.0179352 -0.0024115 -7.47183e-23)
(0.0191724 -0.00220519 1.23381e-20)
(0.0202694 -0.00197384 -5.33555e-24)
(0.021237 -0.00173249 0)
(0.0220907 -0.00149228 0)
(0.0228478 -0.00126039 0)
(0.023525 -0.00104067 8.68418e-24)
(0.0241369 -0.000834784 8.87591e-21)
(0.0246955 -0.000643186 -8.40474e-21)
(0.0252102 -0.000465896 -8.32811e-21)
(0.0256883 -0.000302892 7.98826e-21)
(0.0261356 -0.000154244 -1.54639e-23)
(0.0265567 -2.00785e-05 1.53862e-23)
(0.0269553 9.95134e-05 0)
(0.0273346 0.000204565 0)
(0.0276973 0.000295292 -8.09439e-21)
(0.0280454 0.000372125 1.6181e-20)
(0.0283809 0.000435705 -8.10717e-21)
(0.028705 0.000486868 0)
(0.0290186 0.000526606 -6.70901e-23)
(0.0293219 0.000556024 0)
(0.0296149 0.000576289 3.52385e-23)
(0.0298969 0.000588572 0)
(0.0301667 0.000594008 9.87729e-21)
(0.0304228 0.000593653 2.24178e-22)
(0.0306634 0.000588454 -1.04836e-20)
(0.0308865 0.000579239 1.10222e-20)
(0.0310903 0.000566711 -1.14212e-20)
(0.0312727 0.00055146 0)
(0.0314322 0.000533976 -6.33322e-21)
(0.0315674 0.00051467 6.5615e-21)
(0.0316772 0.00049389 0)
(0.0317608 0.000471937 7.32235e-21)
(0.0318177 0.000449076 -1.537e-20)
(0.0318474 0.000425539 8.09387e-21)
(0.0318496 0.00040153 8.64475e-21)
(0.0318237 0.000377223 -9.03208e-21)
(0.0317691 0.000352761 -7.62393e-23)
(0.0316848 0.000328259 -1.05989e-20)
(0.0315696 0.000303804 1.12595e-20)
(0.031422 0.000279463 6.07381e-21)
(0.0312406 0.000255288 -1.3164e-20)
(0.0310235 0.000231331 7.20426e-21)
(0.0307693 0.000207654 -7.74432e-21)
(0.0304766 0.000184342 8.38355e-21)
(0.030144 0.000161513 -7.09363e-23)
(0.0297703 0.000139323 -1.9359e-23)
(0.0293542 0.000117967 0)
(0.0288937 9.76727e-05 4.52174e-23)
(0.0283858 7.86896e-05 0)
(0.0278263 6.12774e-05 5.31656e-23)
(0.0272091 4.56898e-05 0)
(0.0265261 3.2156e-05 0)
(0.0257668 2.08599e-05 3.41593e-23)
(0.0249185 1.1916e-05 3.72787e-23)
(0.0239657 5.34486e-06 2.05292e-23)
(0.0228898 1.05184e-06 5.75752e-21)
(0.0216675 -1.1836e-06 -6.36853e-21)
(0.0202677 -1.70179e-06 -3.58894e-21)
(0.0186437 -9.35362e-07 8.11044e-21)
(0.0167164 6.14057e-07 -4.76946e-21)
(0.0143277 2.2991e-06 2.96495e-21)
(0.011069 3.36416e-06 -4.34287e-21)
(0.00528131 3.61446e-06 0)
(-0.000604051 0.000498402 -3.80251e-19)
(-0.000915795 0.000924213 8.46975e-23)
(-0.000846812 0.000933 1.48493e-19)
(-0.000611282 0.00081449 -1.01002e-19)
(-0.000240213 0.000630975 2.94397e-23)
(0.000278734 0.000393191 6.88519e-20)
(0.000967673 0.000104496 -6.2097e-20)
(0.00184757 -0.000228788 -3.55483e-23)
(0.00293135 -0.000594578 1.45738e-23)
(0.00421952 -0.00097482 0)
(0.00569745 -0.00134673 -1.08579e-23)
(0.00733476 -0.0016853 -4.42042e-23)
(0.00908693 -0.00196672 -9.53354e-24)
(0.0108993 -0.00217192 -3.86564e-23)
(0.0127127 -0.0022896 1.7886e-20)
(0.0144705 -0.00231782 -1.66916e-20)
(0.0161248 -0.00226391 -1.44379e-23)
(0.0176415 -0.00214246 0)
(0.0190025 -0.00197213 0)
(0.0202051 -0.00177204 0)
(0.0212589 -0.00155873 -1.16907e-20)
(0.0221812 -0.00134448 1.08573e-20)
(0.0229926 -0.00113707 -1.94913e-23)
(0.0237133 -0.000940572 9.69704e-21)
(0.0243608 -0.00075664 -9.29272e-21)
(0.0249493 -0.000585747 0)
(0.0254897 -0.000427981 0)
(0.0259904 -0.000283438 0)
(0.0264578 -0.000152297 8.41661e-21)
(0.0268969 -3.4748e-05 -8.15515e-21)
(0.0273117 6.91251e-05 0)
(0.0277056 0.000159424 8.48157e-21)
(0.0280812 0.000236483 -8.22804e-21)
(0.0284406 0.000300871 8.54155e-21)
(0.0287854 0.000353367 -8.43446e-21)
(0.0291164 0.00039492 1.3721e-22)
(0.0294343 0.000426594 9.05945e-21)
(0.0297386 0.00044951 -9.35999e-21)
(0.0300289 0.000464792 0)
(0.030304 0.000473516 -7.82505e-23)
(0.0305623 0.000476678 -1.06106e-20)
(0.0308021 0.000475163 1.07862e-20)
(0.0310217 0.000469739 -1.13334e-20)
(0.0312192 0.000461059 1.18574e-20)
(0.0313931 0.000449671 0)
(0.0315419 0.000436035 0)
(0.0316647 0.000420543 2.10772e-22)
(0.0317606 0.000403532 0)
(0.0318291 0.000385295 -2.33695e-22)
(0.0318699 0.000366093 0)
(0.0318825 0.000346152 -2.61814e-22)
(0.0318667 0.000325668 8.89308e-21)
(0.0318218 0.000304806 -9.28751e-21)
(0.031747 0.000283699 8.00843e-23)
(0.0316413 0.00026245 -1.71177e-22)
(0.0315032 0.000241141 -5.75093e-21)
(0.0313312 0.000219838 6.39667e-21)
(0.0311236 0.000198602 -7.22591e-21)
(0.0308787 0.000177502 7.52774e-21)
(0.030595 0.000156627 8.19577e-21)
(0.030271 0.0001361 -8.95356e-21)
(0.0299053 0.000116081 0)
(0.0294963 9.67704e-05 -5.41143e-21)
(0.0290418 7.84041e-05 1.13419e-20)
(0.028539 6.12435e-05 -6.178e-21)
(0.0279832 4.5562e-05 -1.57246e-22)
(0.0273685 3.16284e-05 -7.41495e-21)
(0.0266865 1.96866e-05 8.06501e-21)
(0.0259267 9.93262e-06 -4.49959e-21)
(0.0250763 2.48832e-06 4.76497e-21)
(0.0241199 -2.62528e-06 0)
(0.0230388 -5.50933e-06 0)
(0.02181 -6.39686e-06 0)
(0.0204027 -5.64368e-06 -3.49638e-21)
(0.0187709 -3.6985e-06 8.08657e-21)
(0.016836 -1.0838e-06 -4.6429e-21)
(0.0144412 1.49651e-06 2.31325e-23)
(0.0111812 3.22563e-06 -2.14434e-21)
(0.00537397 3.76058e-06 3.14545e-21)
(-0.000604706 0.00055676 0)
(-0.00109645 0.00115062 3.09833e-19)
(-0.00119299 0.00129175 -1.68302e-19)
(-0.00112864 0.00128149 5.55243e-23)
(-0.000964785 0.00120227 -2.02713e-23)
(-0.000707104 0.00107268 0)
(-0.000342392 0.000896265 -6.58883e-20)
(0.000152393 0.000672656 -1.60149e-23)
(0.000805036 0.000401789 1.162e-19)
(0.0016426 8.70757e-05 -5.52884e-20)
(0.00268597 -0.000262475 -5.26482e-23)
(0.00394497 -0.00063158 1.47682e-22)
(0.00541377 -0.000999281 9.49147e-23)
(0.00706815 -0.00134099 1.32295e-22)
(0.00886536 -0.00163184 4.01312e-23)
(0.0107474 -0.00185078 7.52576e-23)
(0.0126473 -0.00198433 0)
(0.0144981 -0.00202904 1.73542e-20)
(0.0162416 -0.00199175 -1.61087e-20)
(0.0178355 -0.00188754 1.49884e-20)
(0.0192577 -0.00173592 -1.38582e-20)
(0.0205051 -0.00155659 0)
(0.0215899 -0.00136607 0)
(0.0225331 -0.001176 8.60543e-23)
(0.023359 -0.00099322 8.12363e-23)
(0.0240906 -0.00082094 1.59913e-22)
(0.0247471 -0.000660289 0)
(0.0253438 -0.000511526 -9.30054e-21)
(0.0258919 -0.000374743 8.73797e-21)
(0.0264 -0.00025011 -8.83576e-21)
(0.0268744 -0.000137852 8.81058e-21)
(0.02732 -3.81342e-05 -8.78255e-21)
(0.0277409 4.90496e-05 1.71071e-20)
(0.02814 0.000123936 4.53823e-22)
(0.0285198 0.000187007 -1.76694e-20)
(0.028882 0.000238968 1.75498e-20)
(0.0292275 0.000280697 4.66493e-22)
(0.0295567 0.00031319 -1.83943e-20)
(0.0298696 0.000337497 1.90941e-20)
(0.0301654 0.000354666 -9.77777e-21)
(0.030443 0.000365693 1.60343e-22)
(0.0307009 0.000371491 0)
(0.0309375 0.000372868 1.1148e-20)
(0.0311511 0.000370523 -1.1651e-20)
(0.0313403 0.000365048 5.69831e-21)
(0.0315036 0.000356944 -6.28565e-21)
(0.0316401 0.000346637 2.05533e-22)
(0.031749 0.000334493 0)
(0.0318298 0.000320832 2.30277e-22)
(0.0318821 0.000305935 -7.7884e-21)
(0.0319057 0.000290048 8.4469e-21)
(0.0319003 0.000273387 8.76192e-21)
(0.0318655 0.000256131 -9.4363e-21)
(0.0318006 0.000238431 -3.10988e-22)
(0.0317045 0.000220407 -1.05745e-20)
(0.031576 0.000202153 1.13544e-20)
(0.0314136 0.000183747 -3.89757e-22)
(0.0312156 0.000165259 2.12325e-22)
(0.0309802 0.000146764 0)
(0.0307057 0.000128358 2.49388e-22)
(0.0303905 0.000110166 8.84261e-21)
(0.0300329 9.23508e-05 -2.78935e-22)
(0.0296313 7.51192e-05 -4.6495e-21)
(0.0291833 5.87143e-05 -1.1182e-20)
(0.0286857 4.34086e-05 6.07591e-21)
(0.028134 2.94894e-05 -1.02593e-22)
(0.0275219 1.72408e-05 7.53761e-21)
(0.0268411 6.92222e-06 -8.20845e-21)
(0.0260811 -1.25724e-06 4.28113e-21)
(0.0252288 -7.16763e-06 -4.75073e-21)
(0.0242688 -1.07863e-05 0)
(0.0231826 -1.22205e-05 1.75856e-22)
(0.0219474 -1.1716e-05 -3.21846e-21)
(0.0205328 -9.64733e-06 3.48971e-21)
(0.0188933 -6.48769e-06 3.90992e-21)
(0.0169511 -2.79333e-06 -4.74009e-21)
(0.0145509 6.67254e-07 0)
(0.0112911 3.03658e-06 1.32122e-22)
(0.00546751 3.82424e-06 0)
(-0.000590604 0.000573944 4.50066e-19)
(-0.00117844 0.00125939 -3.48451e-19)
(-0.0013672 0.00148405 -1.88066e-19)
(-0.0013923 0.00154215 1.2261e-19)
(-0.00133185 0.00152842 9.29528e-20)
(-0.00120338 0.00146784 -6.40853e-23)
(-0.00100454 0.00136707 -6.90246e-20)
(-0.000722688 0.00122655 6.10402e-23)
(-0.00033771 0.00104428 0)
(0.000176627 0.000817795 5.87462e-20)
(0.000850593 0.000546212 1.23878e-22)
(0.00171399 0.000232648 -8.63817e-23)
(0.002791 -0.000113989 -2.04187e-23)
(0.00409462 -0.000478376 -5.07184e-20)
(0.00562099 -0.000839332 -2.40167e-20)
(0.00734531 -0.00117195 2.29591e-20)
(0.00922101 -0.00145122 2.15747e-20)
(0.0111831 -0.00165655 -4.0339e-20)
(0.0131559 -0.00177584 1.89535e-20)
(0.0150644 -0.00180801 -1.72929e-20)
(0.0168449 -0.00176268 1.62987e-20)
(0.0184544 -0.00165727 0)
(0.019874 -0.00151239 1.40572e-20)
(0.0211065 -0.00134722 -2.61329e-20)
(0.0221704 -0.00117645 1.19757e-20)
(0.0230921 -0.00100939 -1.75101e-22)
(0.023899 -0.000850783 0)
(0.0246152 -0.000702449 1.02589e-20)
(0.0252601 -0.000564842 -9.56023e-21)
(0.0258481 -0.000438028 0)
(0.0263901 -0.000322115 8.67204e-21)
(0.0268936 -0.000217303 1.57298e-22)
(0.0273647 -0.00012378 1.64994e-22)
(0.0278076 -4.15962e-05 -1.80107e-20)
(0.0282259 2.94115e-05 9.08659e-21)
(0.028622 8.96467e-05 8.78779e-21)
(0.0289977 0.000139733 -9.31668e-21)
(0.0293541 0.000180466 -2.90741e-22)
(0.0296914 0.000212755 9.63159e-21)
(0.0300096 0.000237555 -9.74197e-21)
(0.0303077 0.000255819 -1.02393e-20)
(0.0305847 0.000268443 2.1382e-20)
(0.0308393 0.000276246 -2.22245e-20)
(0.0310699 0.000279944 1.09667e-20)
(0.0312751 0.000280159 3.73035e-22)
(0.0314536 0.000277417 0)
(0.0316044 0.000272171 -6.96957e-21)
(0.0317268 0.000264807 7.24882e-21)
(0.0318202 0.000255662 7.24708e-21)
(0.0318845 0.000245035 -8.05991e-21)
(0.0319194 0.000233186 0)
(0.0319247 0.000220343 -8.58673e-21)
(0.0319002 0.000206702 -5.19004e-23)
(0.0318452 0.000192427 1.00407e-20)
(0.0317588 0.000177648 0)
(0.03164 0.000162475 0)
(0.0314872 0.000146995 3.82655e-22)
(0.0312988 0.000131285 6.6321e-21)
(0.0310729 0.00011543 -1.43877e-20)
(0.0308076 9.95274e-05 8.05922e-21)
(0.0305013 8.37057e-05 2.65682e-22)
(0.0301521 6.81322e-05 -8.99133e-21)
(0.029758 5.30172e-05 9.45856e-21)
(0.0293166 3.86112e-05 5.5e-21)
(0.0288244 2.51973e-05 -6.35512e-21)
(0.028277 1.30764e-05 2.04183e-22)
(0.0276677 2.54816e-06 7.10705e-21)
(0.0269884 -6.11215e-06 -7.50663e-21)
(0.0262281 -1.2682e-05 -1.31506e-22)
(0.0253739 -1.70228e-05 0)
(0.0244104 -1.91101e-05 0)
(0.0233191 -1.90576e-05 5.41467e-21)
(0.0220776 -1.71263e-05 -6.0893e-21)
(0.0206557 -1.37139e-05 0)
(0.0190087 -9.32491e-06 0)
(0.0170598 -4.5549e-06 2.16623e-21)
(0.014655 -2.33466e-07 -2.88645e-21)
(0.0113969 2.76053e-06 2.22469e-21)
(0.00556012 3.82465e-06 -3.14005e-21)
(-0.000579767 0.000572498 -2.32607e-22)
(-0.00122594 0.00130213 -3.82552e-19)
(-0.00147105 0.00157788 2.085e-19)
(-0.00154786 0.0016795 -1.97432e-22)
(-0.00154412 0.00170764 -1.96357e-22)
(-0.00148414 0.00169128 -1.61867e-22)
(-0.00137212 0.00163963 -1.4198e-22)
(-0.00120292 0.00155481 0)
(-0.000964875 0.00143563 -6.2994e-20)
(-0.000640336 0.00127918 1.21779e-19)
(-0.000205678 0.00108202 -5.94462e-20)
(0.000368238 0.000841475 5.86714e-20)
(0.00111389 0.000557457 4.52222e-22)
(0.00206221 0.000234777 -5.54809e-20)
(0.0032374 -0.000115595 -2.70463e-20)
(0.00465043 -0.000476191 2.534e-20)
(0.00629264 -0.000824105 2.41938e-20)
(0.00813127 -0.00113378 1.4799e-22)
(0.0101092 -0.00138128 -2.16237e-20)
(0.0121503 -0.00154917 1.98548e-20)
(0.0141699 -0.00163039 -3.747e-20)
(0.0160885 -0.00162964 3.50918e-20)
(0.0178451 -0.00156158 -1.61437e-20)
(0.0194049 -0.0014464 -1.45074e-20)
(0.0207603 -0.00130456 2.80274e-20)
(0.0219254 -0.00115267 -1.29324e-20)
(0.0229271 -0.00100174 3.83308e-22)
(0.0237961 -0.000857599 0)
(0.0245607 -0.000722574 0)
(0.025244 -0.000597227 1.03053e-20)
(0.0258635 -0.000481563 -9.49438e-21)
(0.0264318 -0.000375598 -1.02356e-20)
(0.0269579 -0.000279473 9.2876e-21)
(0.0274483 -0.000193358 0)
(0.0279081 -0.000117323 0)
(0.0283407 -5.12525e-05 9.57257e-21)
(0.0287487 5.19306e-06 -1.85641e-20)
(0.0291339 5.25592e-05 9.6297e-21)
(0.0294972 9.15525e-05 0)
(0.029839 0.000122982 0)
(0.0301588 0.000147697 1.02263e-20)
(0.0304558 0.000166538 -1.00777e-20)
(0.0307291 0.00018029 -3.38228e-22)
(0.0309772 0.000189664 1.17325e-20)
(0.0311989 0.000195285 -1.24424e-20)
(0.031393 0.00019769 0)
(0.0315585 0.000197342 8.04139e-22)
(0.0316947 0.000194638 -1.26711e-21)
(0.0318011 0.000189928 0)
(0.0318776 0.000183516 8.46188e-21)
(0.031924 0.000175672 5.67594e-23)
(0.0319402 0.000166634 -1.68168e-20)
(0.031926 0.000156607 8.92757e-21)
(0.0318809 0.000145763 1.01919e-20)
(0.0318043 0.000134247 -1.0247e-20)
(0.0316951 0.000122176 -5.54269e-21)
(0.0315518 0.000109646 1.19592e-20)
(0.0313728 9.67434e-05 -1.25611e-20)
(0.0311563 8.35571e-05 7.03512e-21)
(0.0309003 7.019e-05 -7.67766e-21)
(0.0306028 5.67731e-05 -2.78221e-22)
(0.0302619 4.34765e-05 9.09631e-21)
(0.0298755 3.05144e-05 3.10752e-22)
(0.0294407 1.81445e-05 0)
(0.0289541 6.65943e-06 3.69385e-22)
(0.0284109 -3.62664e-06 6.83809e-21)
(0.0278046 -1.23986e-05 -1.42624e-20)
(0.0271266 -1.93659e-05 1.53375e-20)
(0.0263662 -2.42924e-05 -8.1203e-21)